
                                 *****************
                                 * O   R   C   A *
                                 *****************

                                            #,                                       
                                            ###                                      
                                            ####                                     
                                            #####                                    
                                            ######                                   
                                           ########,                                 
                                     ,,################,,,,,                         
                               ,,#################################,,                 
                          ,,##########################################,,             
                       ,#########################################, ''#####,          
                    ,#############################################,,   '####,        
                  ,##################################################,,,,####,       
                ,###########''''           ''''###############################       
              ,#####''   ,,,,##########,,,,          '''####'''          '####       
            ,##' ,,,,###########################,,,                        '##       
           ' ,,###''''                  '''############,,,                           
         ,,##''                                '''############,,,,        ,,,,,,###''
      ,#''                                            '''#######################'''  
     '                                                          ''''####''''         
             ,#######,   #######,   ,#######,      ##                                
            ,#'     '#,  ##    ##  ,#'     '#,    #''#        ,####,    ,#,          
            ##       ##  ##   ,#'  ##            #'  '#       #'       ,# #          
            ##       ##  #######   ##           ,######,      #####,      #          
            '#,     ,#'  ##    ##  '#,     ,#' ,#      #,     #,   #      #          
             '#######'   ##     ##  '#######'  #'      '#     '####' #    #          



                #########################################################
                #                        -***-                          #
                #          Department of theory and spectroscopy        #
                #                                                       #
                #                      Frank Neese                      #
                #                                                       #
                #     Directorship, Architecture, Infrastructure        #
                #                    SHARK, DRIVERS                     #
                #        Core code/Algorithms in most modules           #
                #                                                       #
                #        Max Planck Institute fuer Kohlenforschung      #
                #                Kaiser Wilhelm Platz 1                 #
                #                 D-45470 Muelheim/Ruhr                 #
                #                      Germany                          #
                #                                                       #
                #                  All rights reserved                  #
                #                        -***-                          #
                #########################################################


                         Program Version 6.1.0  -  RELEASE   -
                                (GIT: $679e74b$)
                          ($2025-06-10 18:02:51 +0200$)


 With contributions from (in alphabetic order):
[Max-Planck-Institut fuer Kohlenforschung]                               
  Daniel Aravena         : Magnetic Suceptibility                        
  Michael Atanasov       : Ab Initio Ligand Field Theory (pilot matlab implementation)
  Alexander A. Auer      : GIAO ZORA, VPT2 properties, NMR spectrum      
  Ute Becker             : All parallelization in ORCA, NUMFREQ, NUMCALC 
  Giovanni Bistoni       : ED, misc. LED, open-shell LED, HFLD           
  Dmytro Bykov           : pre 5.0 version of the SCF Hessian            
  Marcos Casanova-Páez   : Triplet and SCS-CIS(D). UHF-(DLPNO)-IP/EA/STEOM-CCSD. UHF-CVS-IP/STEOM-CCSD   
  Vijay G. Chilkuri      : MRCI spin determinant printing, contributions to CSF-ICE 
  Pauline Colinet        : FMM embedding                                 
  Dipayan Datta          : RHF DLPNO-CCSD density                        
  Achintya Kumar Dutta   : EOM-CC, STEOM-CC                              
  Nicolas Foglia         : Exact transition moments, OPA infrastructure, MCD improvements    
  Dmitry Ganyushin       : Spin-Orbit,Spin-Spin,Magnetic field MRCI      
  Miquel Garcia-Rates    : C-PCM and meta-GGA Hessian, CCSD/C-PCM, Gaussian charge scheme 
  Tiago L. C. Gouveia    : GS-ROHF, GS-ROCIS                             
  Yang Guo               : DLPNO-NEVPT2, F12-NEVPT2, CIM, IAO-localization        
  Andreas Hansen         : Spin unrestricted coupled pair/coupled cluster methods 
  Ingolf Harden          : AUTO-CI MPn and infrastructure                
  Benjamin Helmich-Paris : MC-RPA, TRAH-(SCF,CASSCF), AVAS, COSX integrals, SCF dyn. polar., MC-PDFT, srDFT 
  Lee Huntington         : MR-EOM, pCC                                   
  Robert Izsak           : Overlap fitted RIJCOSX, COSX-SCS-MP3, EOM     
  Riya Kayal             : Wick's Theorem for AUTO-CI, AUTO-CI UHF-CCSDT 
  Emily Kempfer          : AUTO-CI RHF CISDT and CCSDT, approximate NEVPT4
  Christian Kollmar      : KDIIS, OOCD, Brueckner-CCSD(T), CCSD density, CASPT2, CASPT2-K, improved NEVPT2 
  Axel Koslowski         : Symmetry handling                             
  Simone Kossmann        : meta-GGA functionals, TD-DFT gradient, OOMP2, (MP2 Hessian; deprecated post 5.0) 
  Lucas Lang             : DCDCAS, Hyperfine gauge corrections, ICE-SOC+SSC
  Marvin Lechner         : AUTO-CI (C++ implementation), FIC-MRCC        
  Spencer Leger          : CASSCF response                               
  Dagmar Lenk            : GEPOL surface, SMD, ORCA-2-JSON               
  Dimitrios Liakos       : Extrapolation schemes; Compound Job, Property file
  Dimitrios Manganas     : Further ROCIS development; embedding schemes. LFT, Crystal Embedding 
  Dimitrios Pantazis     : SARC Basis sets                               
  Anastasios Papadopoulos: AUTO-CI, single reference methods and gradients 
  Taras Petrenko         : pre 6.0 DFT Hessian and TD-DFT gradient,  ECA, NRVS 
  Petra Pikulova         : Analytic Raman intensities                    
  Peter Pinski           : DLPNO-MP2, DLPNO-MP2 Gradient                 
  Shashank Vittal Rao    : ES-AILFT, MagRelax                            
  Christoph Reimann      : Effective Core Potentials                     
  Marius Retegan         : Local ZFS, SOC                                
  Christoph Riplinger    : Optimizer, TS searches, QM/MM, DLPNO-CCSD(T), (RO)-DLPNO pert. Triples 
  Michael Roemelt        : Original ROCIS implementation, recursive CI coupling coefficients
  Masaaki Saitow         : Open-shell DLPNO-CCSD energy and density      
  Barbara Sandhoefer     : DKH picture change effects                    
  Yorick L. A. Schmerwitz: GMF and freeze-and-release deltaSCF, NEB S-IDPP initial path                    
  Kantharuban Sivalingam : CASSCF convergence/infrastructure, NEVPT2, NEVPT3, NEVPT4(SD), FIC-MRCI and CEPA variants
  Bernardo de Souza      : ESD, SOC TD-DFT                               
  Georgi L. Stoychev     : AutoAux, RI-MP2 NMR, DLPNO-MP2 response, X2C  
  Van Anh Tran           : RI-MP2 g-tensors                              
  Willem Van den Heuvel  : Paramagnetic NMR                              
  Zikuan Wang            : NOTCH, Electric field optimization            
  Frank Wennmohs         : Technical directorship and infrastructure     
  Hang Xu                : AUTO-CI-Response properties                   
                                                                         
[FACCTs GmbH]                                                            
  Markus Bursch, Nicolas Foglia, Miquel Garcia-Rates, Ingolf Harden, Hagen Neugebauer, Anastasios Papadopoulos, 
  Christoph Riplinger, Bernardo de Souza, Georgi L. Stoychev                                                    
                                                                 
  APM, various basis sets, CI-OPT, improved COSX, DLPNO-Multilevel,           
  DOCKER, DRACO, updates on ESD, Fragmentator, GOAT, IRC, LR-CPCM, L-BFGS, MBIS, meta-GGA TD-DFT gradient, ML-optimized integration grids, 
  MM, NACMEs, nearIR, NEB, NEB-TS, NL-DFT gradient (VV10), 2- and 3-layer-ONIOM, interface openCOSMO-RS, QMMM,   
  Crystal-QMMM, RESP, rigid body optimization, SF, symmetry and pop. for TD-DFT, various functionals, SOLVATOR                                   
                                                                         
[Other institutions]                                                     
  V. Asgeirsson          : NEB                                           
  Christoph Bannwarth    : sTDA-DFT, sTD-DFT, PBEh-3c, B97-3c, D3        
  Giovanni Bistoni       : ETS/NOCV, ADLD/ADEX, COVALED                  
  Martin Brehm           : Molecular dynamics                            
  Ronald Cardenas        : ETS/NOCV                                      
  Martina Colucci        : COVALED                                       
  Sebastian Ehlert       : rSCAN, r2SCAN, r2SCAN-3c, D4, dhf basis sets  
  Marvin Friede          : D4 for Fr, Ra, Ac-Lr                          
  Lars Goerigk           : TD-DFT with DH, B97 family of functionals     
  Stefan Grimme          : VdW corrections, initial TS optimization, DFT functionals, gCP, sTDA/sTD-DF 
  Waldemar Hujo          : DFT-NL                                        
  H. Jonsson             : NEB                                           
  Holger Kruse           : gCP                                           
  Marcel Mueller         : wB97X-3c, vDZP basis set                      
  Hagen Neugebauer       : wr2SCAN, Native XTB                           
  Gianluca Regni         : ADLD/ADEX                                     
  Tobias Risthaus        : pre 6.0 range-separated hybrid DFT and stability analysis
  Lukas Wittmann         : regularized MP2, r2SCAN double-hybrids, wr2SCAN        
                                                                         
We gratefully acknowledge several colleagues who have allowed us to      
interface, adapt or use parts of their codes:                            
  Ed Valeev, F. Pavosevic, A. Kumar             : LibInt (2-el integral package), F12 methods 
  Garnet Chan, S. Sharma, J. Yang, R. Olivares  : DMRG                   
  Ulf Ekstrom                                   : XCFun DFT Library      
  Mihaly Kallay                                 : mrcc  (arbitrary order and MRCC methods)
  Frank Weinhold                                : gennbo (NPA and NBO analysis)           
  Simon Mueller                                 : openCOSMO-RS                            
  Christopher J. Cramer and Donald G. Truhlar   : smd solvation model                     
  S Lehtola, MJT Oliveira, MAL Marques          : LibXC Library                           
  Liviu Ungur et al                             : ANISO software                          


 Your calculation uses the libint2 library for the computation of 2-el integrals
 For citations please refer to: http://libint.valeyev.net

 Your ORCA version has been built with support for libXC version: 7.0.0
 For citations please refer to: https://libxc.gitlab.io

 This ORCA versions uses:
   CBLAS   interface :  Fast vector & matrix operations
   LAPACKE interface :  Fast linear algebra routines
   SCALAPACK package :  Parallel linear algebra routines
   Shared memory     :  Shared parallel matrices
   BLAS/LAPACK       :  OpenBLAS 0.3.29  USE64BITINT DYNAMIC_ARCH NO_AFFINITY Zen SINGLE_THREADED
        Core in use  :  Zen
   Copyright (c) 2011-2014, The OpenBLAS Project


  ***********************************
  * Starting time: Thu Nov 20 21:10:10 2025
  * Host name:     twstudio
  * Process ID:    46265
  * Working dir.:  /mnt/sda3/data1/Studium-PC/PFAS-Breaker/C-F-Bonds_Gibbs/Solvation
  ***********************************

Your calculation utilizes the atom-pairwise dispersion correction
based on EEQ partial charges (D4)


Your calculation utilizes the SMD solvation module
Please cite in your paper:
Marenich, A. V.; Cramer, C. J.; Truhlar, D. G. J. Phys. Chem. B 2009, 113, 6378 

Warning: RI is on but no J-basis has been assigned. Assigning Def2/J (nothing to worry about!)
================================================================================

----- Orbital basis set information -----
Your calculation utilizes the basis: def2-TZVPP
   F. Weigend and R. Ahlrichs, Phys. Chem. Chem. Phys. 7, 3297 (2005).

----- AuxJ basis set information -----
Your calculation utilizes the auxiliary basis: def2/J
   H-Rn: F. Weigend, Phys. Chem. Chem. Phys. 8, 1057 (2006).
   Fr-Lr: K. Eichkorn, F. Weigend, O. Treutler, R. Ahlrichs; Theor. Chem. Acc. 97, 119 (1997).

================================================================================
                                        WARNINGS
                       Please study these warnings very carefully!
================================================================================


WARNING: Geometry Optimization
  ===> : Switching off AutoStart
         For restart on a previous wavefunction, please use MOREAD

================================================================================
                                       INPUT FILE
================================================================================
NAME = 1-2-3-4-5-fluoropropanoic_acid.inp
|  1> !PBE D4 def2-TZVPP OPT FREQ SMD(WATER)
|  2> 
|  3> %scf
|  4> MaxCore 28672
|  5> end
|  6> 
|  7> * xyz 0 1
|  8> C     -5.97859    1.39367   -0.03269
|  9> C     -4.64455    2.16370   -0.10191
| 10> F     -6.81011    2.05357   -0.29062
| 11> F     -5.97862    0.55475   -0.73306
| 12> F     -6.14566    1.00660    0.97461
| 13> C     -3.43502    1.27316    0.11657
| 14> F     -4.55805    2.64654   -1.07917
| 15> F     -4.64994    2.95608    0.65096
| 16> O     -3.48044    0.06361    0.21954
| 17> O     -2.30630    1.92981    0.10931
| 18> H     -2.51022    2.87274   -0.01050
| 19> **                         ****END OF INPUT****
================================================================================

                       *****************************
                       * Geometry Optimization Run *
                       *****************************

Geometry optimization settings:
Update method            Update   .... BFGS
Choice of coordinates    CoordSys .... (2022) Redundant Internals
Initial Hessian          InHess   .... Almloef's Model
Max. no of cycles        MaxIter  .... 50

Convergence Tolerances:
Energy Change            TolE     ....  5.0000e-06 Eh
Max. Gradient            TolMAXG  ....  3.0000e-04 Eh/bohr
RMS Gradient             TolRMSG  ....  1.0000e-04 Eh/bohr
Max. Displacement        TolMAXD  ....  4.0000e-03 bohr
RMS Displacement         TolRMSD  ....  2.0000e-03 bohr
Strict Convergence                .... False

------------------------------------------------------------------------------
                        ORCA OPTIMIZATION COORDINATE SETUP
------------------------------------------------------------------------------

The optimization will be done in redundant internal coordinates (2022)
Making redundant internal coordinates   ...  (2022 redundants) done
Evaluating the initial hessian          ...  (Almloef) done
Evaluating the coordinates              ...  done
Calculating the B-matrix                .... done
Calculating the G-matrix                .... done
The number of degrees of freedom        ....   78

    -----------------------------------------------------------------
                    Redundant Internal Coordinates


    -----------------------------------------------------------------
         Definition                    Initial Value    Approx d2E/dq
    -----------------------------------------------------------------
      1. B(C   1,C   0)                  1.5419         0.357619   
      2. B(F   2,C   0)                  1.0924         1.551342   
      3. B(F   3,F   2)                  1.7702         0.107058   
      4. B(F   3,C   0)                  1.0928         1.549039   
      5. B(F   4,F   2)                  1.7716         0.106520   
      6. B(F   4,F   3)                  1.7743         0.105448   
      7. B(F   4,C   0)                  1.0920         1.554038   
      8. B(C   5,C   1)                  1.5178         0.390679   
      9. B(F   6,C   1)                  1.0935         1.545532   
     10. B(F   7,F   6)                  1.7600         0.111142   
     11. B(F   7,C   1)                  1.0930         1.547989   
     12. B(O   8,C   5)                  1.2148         1.065213   
     13. B(O   9,C   5)                  1.3059         0.762303   
     14. B(H  10,F   6)                  2.3210         0.010000   
     15. B(H  10,O   9)                  0.9721         0.497278   
     16. B(H  10,F   7)                  2.2412         0.010000   
     17. A(C   1,C   0,F   4)          110.5371         0.458929   
     18. A(F   3,C   0,F   4)          108.6065         0.597386   
     19. A(F   2,C   0,F   3)          108.2024         0.597186   
     20. A(C   1,C   0,F   2)          110.2602         0.458783   
     21. A(C   1,C   0,F   3)          110.7704         0.458659   
     22. A(F   2,C   0,F   4)          108.3888         0.597557   
     23. A(F   6,C   1,F   7)          107.2100         0.596677   
     24. A(C   5,C   1,F   7)          109.2763         0.466074   
     25. A(C   0,C   1,F   6)          109.2136         0.458469   
     26. A(C   0,C   1,F   7)          109.0779         0.458602   
     27. A(C   5,C   1,F   6)          108.9467         0.465938   
     28. A(C   0,C   1,C   5)          112.9540         0.363421   
     29. A(F   3,F   2,F   4)           60.1285         0.236104   
     30. A(C   0,F   2,F   4)           35.7966         0.362306   
     31. A(C   0,F   2,F   3)           35.9065         0.362618   
     32. A(C   0,F   3,F   4)           35.6802         0.361590   
     33. A(C   0,F   3,F   2)           35.8911         0.362526   
     34. A(F   2,F   3,F   4)           59.9741         0.235768   
     35. A(F   2,F   4,F   3)           59.8974         0.235601   
     36. A(C   0,F   4,F   3)           35.7133         0.361789   
     37. A(C   0,F   4,F   2)           35.8145         0.362414   
     38. A(O   8,C   5,O   9)          122.2408         0.491009   
     39. A(C   1,C   5,O   9)          113.1388         0.412019   
     40. A(C   1,C   5,O   8)          124.5140         0.437431   
     41. A(C   1,F   6,F   7)           36.3867         0.364713   
     42. A(C   1,F   7,F   6)           36.4034         0.364812   
     43. A(C   5,O   9,H  10)          107.8856         0.380617   
     44. D(F   6,C   1,C   0,F   2)    -53.1324         0.010270   
     45. D(C   5,C   1,C   0,F   3)    -54.7889         0.010270   
     46. D(F   6,C   1,C   0,F   3)     66.6111         0.010270   
     47. D(F   6,C   1,C   0,F   4)   -172.9587         0.010270   
     48. D(C   5,C   1,C   0,F   4)     65.6413         0.010270   
     49. D(C   5,C   1,C   0,F   2)   -174.5324         0.010270   
     50. D(F   3,F   2,C   0,C   1)    121.2855         0.317875   
     51. D(F   4,F   2,C   0,F   3)    117.5979         0.317875   
     52. D(F   4,F   2,C   0,C   1)   -121.1167         0.317875   
     53. D(F   3,F   2,C   0,F   4)   -117.5979         0.317875   
     54. D(F   4,F   3,C   0,F   2)   -117.4581         0.316720   
     55. D(F   4,F   3,C   0,C   1)    121.5726         0.316720   
     56. D(F   2,F   3,C   0,F   4)    117.4581         0.316720   
     57. D(C   0,F   3,F   2,F   4)    -36.7109         0.010000   
     58. D(F   2,F   3,C   0,C   1)   -120.9693         0.316720   
     59. D(F   4,F   3,F   2,C   0)     36.7109         0.010000   
     60. D(F   2,F   4,F   3,C   0)     36.9300         0.010000   
     61. D(F   3,F   4,F   2,C   0)    -36.8245         0.010000   
     62. D(C   0,F   4,F   2,F   3)     36.8245         0.010000   
     63. D(F   3,F   4,C   0,F   2)    117.3392         0.319231   
     64. D(F   3,F   4,C   0,C   1)   -121.7153         0.319231   
     65. D(C   0,F   4,F   3,F   2)    -36.9300         0.010000   
     66. D(F   2,F   4,C   0,F   3)   -117.3392         0.319231   
     67. D(F   2,F   4,C   0,C   1)    120.9455         0.319231   
     68. D(O   9,C   5,C   1,F   6)     60.9003         0.011353   
     69. D(O   9,C   5,C   1,C   0)   -177.5490         0.011353   
     70. D(O   8,C   5,C   1,F   7)    127.7523         0.011353   
     71. D(O   8,C   5,C   1,F   6)   -115.4103         0.011353   
     72. D(O   8,C   5,C   1,C   0)      6.1404         0.011353   
     73. D(F   7,F   6,C   1,C   5)   -118.1463         0.314966   
     74. D(F   7,F   6,C   1,C   0)    118.0540         0.314966   
     75. D(F   6,F   7,C   1,C   5)    117.9319         0.316194   
     76. D(F   6,F   7,C   1,C   0)   -118.1422         0.316194   
     77. D(H  10,O   9,C   5,O   8)    178.2126         0.044292   
     78. D(H  10,O   9,C   5,C   1)      1.8066         0.044292   
    -----------------------------------------------------------------

Number of atoms                         .... 11
Number of degrees of freedom            .... 78


         *************************************************************
         *                GEOMETRY OPTIMIZATION CYCLE   1            *
         *************************************************************
---------------------------------
CARTESIAN COORDINATES (ANGSTROEM)
---------------------------------
  C     -5.978590    1.393670   -0.032690
  C     -4.644550    2.163700   -0.101910
  F     -6.810110    2.053570   -0.290620
  F     -5.978620    0.554750   -0.733060
  F     -6.145660    1.006600    0.974610
  C     -3.435020    1.273160    0.116570
  F     -4.558050    2.646540   -1.079170
  F     -4.649940    2.956080    0.650960
  O     -3.480440    0.063610    0.219540
  O     -2.306300    1.929810    0.109310
  H     -2.510220    2.872740   -0.010500

----------------------------
CARTESIAN COORDINATES (A.U.)
----------------------------
  NO LB      ZA    FRAG     MASS         X           Y           Z
   0 C     6.0000    0    12.011  -11.297898    2.633655   -0.061775
   1 C     6.0000    0    12.011   -8.776928    4.088800   -0.192582
   2 F     9.0000    0    18.998  -12.869243    3.880685   -0.549192
   3 F     9.0000    0    18.998  -11.297954    1.048326   -1.385283
   4 F     9.0000    0    18.998  -11.613614    1.902198    1.841746
   5 C     6.0000    0    12.011   -6.491247    2.405924    0.220285
   6 F     9.0000    0    18.998   -8.613466    5.001236   -2.039336
   7 F     9.0000    0    18.998   -8.787113    5.586182    1.230136
   8 O     8.0000    0    15.999   -6.577078    0.120205    0.414870
   9 O     8.0000    0    15.999   -4.358275    3.646812    0.206566
  10 H     1.0000    0     1.008   -4.743628    5.428692   -0.019842

--------------------------------
INTERNAL COORDINATES (ANGSTROEM)
--------------------------------
 C      0   0   0     0.000000000000     0.00000000     0.00000000
 C      1   0   0     1.541882074252     0.00000000     0.00000000
 F      1   2   0     1.092438284435   110.26018284     0.00000000
 F      1   2   3     1.092842579789   110.77041449   119.74349969
 F      1   2   3     1.091965594605   110.53709660   240.17371353
 C      2   1   3     1.517813500698   112.95404268   185.46762016
 F      2   1   3     1.093459566331   109.21357479   306.86760940
 F      2   1   3     1.093027151264   109.07790049    63.74391878
 O      6   2   1     1.214774464582   124.51403765     6.14041961
 O      6   2   1     1.305852506411   113.13876691   182.45102896
 H     10   6   2     0.972139283951   107.88558474     1.80661396

---------------------------
INTERNAL COORDINATES (A.U.)
---------------------------
 C      0   0   0     0.000000000000     0.00000000     0.00000000
 C      1   0   0     2.913734851139     0.00000000     0.00000000
 F      1   2   0     2.064409175794   110.26018284     0.00000000
 F      1   2   3     2.065173183289   110.77041449   119.74349969
 F      1   2   3     2.063515921467   110.53709660   240.17371353
 C      2   1   3     2.868251838687   112.95404268   185.46762016
 F      2   1   3     2.066339118881   109.21357479   306.86760940
 F      2   1   3     2.065521972829   109.07790049    63.74391878
 O      6   2   1     2.295591052540   124.51403765     6.14041961
 O      6   2   1     2.467703608412   113.13876691   182.45102896
 H     10   6   2     1.837077010693   107.88558474     1.80661396

---------------------
BASIS SET INFORMATION
---------------------
There are 4 groups of distinct atoms

 Group   1 Type C   : 11s6p2d1f contracted to 5s3p2d1f pattern {62111/411/11/1}
 Group   2 Type F   : 11s6p2d1f contracted to 5s3p2d1f pattern {62111/411/11/1}
 Group   3 Type O   : 11s6p2d1f contracted to 5s3p2d1f pattern {62111/411/11/1}
 Group   4 Type H   : 5s2p1d contracted to 3s2p1d pattern {311/11/1}

Atom   0C    basis set group =>   1
Atom   1C    basis set group =>   1
Atom   2F    basis set group =>   2
Atom   3F    basis set group =>   2
Atom   4F    basis set group =>   2
Atom   5C    basis set group =>   1
Atom   6F    basis set group =>   2
Atom   7F    basis set group =>   2
Atom   8O    basis set group =>   3
Atom   9O    basis set group =>   3
Atom  10H    basis set group =>   4
---------------------------------
AUXILIARY/J BASIS SET INFORMATION
---------------------------------
There are 4 groups of distinct atoms

 Group   1 Type C   : 12s5p4d2f1g contracted to 6s4p3d1f1g pattern {711111/2111/211/2/1}
 Group   2 Type F   : 12s5p4d2f1g contracted to 6s4p3d1f1g pattern {711111/2111/211/2/1}
 Group   3 Type O   : 12s5p4d2f1g contracted to 6s4p3d1f1g pattern {711111/2111/211/2/1}
 Group   4 Type H   : 5s2p1d contracted to 3s1p1d pattern {311/2/1}

Atom   0C    basis set group =>   1
Atom   1C    basis set group =>   1
Atom   2F    basis set group =>   2
Atom   3F    basis set group =>   2
Atom   4F    basis set group =>   2
Atom   5C    basis set group =>   1
Atom   6F    basis set group =>   2
Atom   7F    basis set group =>   2
Atom   8O    basis set group =>   3
Atom   9O    basis set group =>   3
Atom  10H    basis set group =>   4
------------------------------------------------------------------------------
                             ORCA STARTUP CALCULATIONS
                           -- RI-GTO INTEGRALS CHOSEN --
------------------------------------------------------------------------------
------------------------------------------------------------------------------
                   ___                                                        
                  /   \      - P O W E R E D   B Y -                         
                 /     \                                                     
                 |  |  |   _    _      __       _____    __    __             
                 |  |  |  | |  | |    /  \     |  _  \  |  |  /  |          
                  \  \/   | |  | |   /    \    | | | |  |  | /  /          
                 / \  \   | |__| |  /  /\  \   | |_| |  |  |/  /          
                |  |  |   |  __  | /  /__\  \  |    /   |      \           
                |  |  |   | |  | | |   __   |  |    \   |  |\   \          
                \     /   | |  | | |  |  |  |  | |\  \  |  | \   \       
                 \___/    |_|  |_| |__|  |__|  |_| \__\ |__|  \__/        
                                                                              
                      - O R C A' S   B I G   F R I E N D -                    
                                      &                                       
                       - I N T E G R A L  F E E D E R -                       
                                                                              
 v1 FN, 2020, v2 2021, v3 2022-2024                                           
------------------------------------------------------------------------------


----------------------
SHARK INTEGRAL PACKAGE
----------------------

Number of atoms                             ...     11
Number of basis functions                   ...    324
Number of shells                            ...    116
Maximum angular momentum                    ...      3
Integral batch strategy                     ... SHARK/LIBINT Hybrid
RI-J (if used) integral strategy            ... SPLIT-RIJ (Revised 2003 algorithm where possible)
Printlevel                                  ...      1
Contraction scheme used                     ... SEGMENTED contraction
Prescreening option                         ... SCHWARTZ
   Thresh                                   ... 2.500e-11
   Tcut                                     ... 2.500e-12
   Tpresel                                  ... 2.500e-12 
Coulomb Range Separation                    ... NOT USED
Exchange Range Separation                   ... NOT USED
Multipole approximations                    ... NOT USED
Finite Nucleus Model                        ... NOT USED
CABS basis                                  ... NOT available
Auxiliary Coulomb fitting basis             ... AVAILABLE
   # of basis functions in Aux-J            ...    501
   # of shells in Aux-J                     ...    155
   Maximum angular momentum in Aux-J        ...      4
Auxiliary J/K fitting basis                 ... NOT available
Auxiliary Correlation fitting basis         ... NOT available
Auxiliary 'external' fitting basis          ... NOT available

Checking pre-screening integrals            ... done (  0.0 sec) Dimension = 116
   => SHARK Basis and OBASIS are compatible. Storing Pre-screening
Shell pair information
Shell pair cut-off parameter TPreSel        ...   2.5e-12
Total number of shell pairs                 ...      6786
Shell pairs after pre-screening             ...      6050
Total number of primitive shell pairs       ...     21959
Primitive shell pairs kept                  ...     14233
          la=0 lb=0:   1173 shell pairs
          la=1 lb=0:   1562 shell pairs
          la=1 lb=1:    515 shell pairs
          la=2 lb=0:    957 shell pairs
          la=2 lb=1:    641 shell pairs
          la=2 lb=2:    207 shell pairs
          la=3 lb=0:    445 shell pairs
          la=3 lb=1:    308 shell pairs
          la=3 lb=2:    191 shell pairs
          la=3 lb=3:     51 shell pairs

Checking whether 4 symmetric matrices of dimension 324 fit in memory
:Max Core in MB      =  28672.00
 MB in use           =     11.21
 MB left             =  28660.79
 MB needed           =      1.61
 Data fit in memory  = YES
Calculating RI/J V-Matrix + Cholesky decomp.... done (  0.0 sec)
Calculating Nuclear repulsion               ... done (  0.0 sec) ENN=    704.928923592714 Eh

Diagonalization of the overlap matrix:
Smallest eigenvalue                        ... 1.937e-04
Time for diagonalization                   ...    0.013 sec
Threshold for overlap eigenvalues          ... 1.000e-07
Number of eigenvalues below threshold      ... 0
Time for construction of square roots      ...    0.007 sec
Total time needed                          ...    0.021 sec

-------------------
DFT GRID GENERATION
-------------------

General Integration Accuracy     IntAcc      ... 4.388
Radial Grid Type                 RadialGrid  ... OptM3 with GC (2021)
Angular Grid (max. ang.)         AngularGrid ... 4 (Lebedev-302)
Angular grid pruning method      GridPruning ... 4 (adaptive)
Weight generation scheme         WeightScheme... mBecke (2022)
Basis function cutoff            BFCut       ... 1.0000e-11
Integration weight cutoff        WCut        ... 1.0000e-14
Partially contracted basis set               ... off
Rotationally invariant grid construction     ... off
Angular grids for H and He will be reduced by one unit

Total number of grid points                  ...    63932
Total number of batches                      ...     1003
Average number of points per batch           ...       63
Average number of grid points per atom       ...     5812
Grids setup in   0.5 sec
Initializing property integral containers    ... done (  0.0 sec)

SHARK setup successfully completed in   0.8 seconds

Maximum memory used throughout the entire STARTUP-calculation: 44.0 MB
-------------------------------------------------------------------------------
                                 ORCA GUESS
                   Start orbitals & Density for SCF / CASSCF
-------------------------------------------------------------------------------

------------
SCF SETTINGS
------------
Hamiltonian:
 Density Functional     Method          .... DFT(GTOs)
 Exchange Functional    Exchange        .... PBE
   PBE kappa parameter   XKappa         ....  0.804000
   PBE mue parameter    XMuePBE         ....  0.219520
 Correlation Functional Correlation     .... PBE
   PBE beta parameter  CBetaPBE         ....  0.066725
 LDA part of GGA corr.  LDAOpt          .... PW91-LDA
 Gradients option       PostSCFGGA      .... off
   NL short-range parameter             ....  6.400000
 RI-approximation to the Coulomb term is turned on
   Number of AuxJ basis functions       .... 501


General Settings:
 Integral files         IntName         .... 1-2-3-4-5-fluoropropanoic_acid
 Hartree-Fock type      HFTyp           .... RHF
 Total Charge           Charge          ....    0
 Multiplicity           Mult            ....    1
 Number of Electrons    NEL             ....   80
 Basis Dimension        Dim             ....  324
 Nuclear Repulsion      ENuc            ....    704.9289235927 Eh

Convergence Acceleration:
 AO-DIIS                CNVDIIS         .... on
   Start iteration      DIISMaxIt       ....    12
   Startup error        DIISStart       ....  0.200000
   # of expansion vecs  DIISMaxEq       ....     5
   Bias factor          DIISBfac        ....   1.050
   Max. coefficient     DIISMaxC        ....  10.000
 MO-DIIS                CNVKDIIS        .... off
 Trust-Rad. Augm. Hess. CNVTRAH         .... auto
   Auto Start mean grad. ratio tolernc. ....  1.125000
   Auto Start start iteration           ....    50
   Auto Start num. interpolation iter.  ....    10
   Max. Number of Micro iterations      ....    24
   Max. Number of Macro iterations      .... Maxiter - #DIIS iter
   Number of Davidson start vectors     ....     2
   Converg. threshold    (grad. norm)   ....   1.000e-05
   Grad. Scal. Fac. for Micro threshold ....   0.100
   Minimum threshold for Micro iter.    ....   1.000e-02
   NR start threshold (gradient norm)   ....   1.000e-04
   Initial trust radius                 ....   0.400
   Minimum AH scaling param. (alpha)    ....   1.000
   Maximum AH scaling param. (alpha)    .... 1000.000
   Quad. conv. algorithm                .... NR
   White noise on init. David. guess    .... on
   Maximum white noise                  ....   0.010
   Pseudo random numbers                .... off
   Inactive MOs                         .... canonical
   Orbital update algorithm             .... Taylor
   Preconditioner                       .... Diag
   Full preconditioner red. dimension   ....   250
 SOSCF                 CNVSOSCF           .... on
   Start iteration     SOSCFMaxIt         ....   150
   Startup grad/error  SOSCFStart         ....  0.003300
   Hessian update      SOSCFHessUp        .... L-BFGS
   Autom. constraints  SOSCFAutoConstrain .... off
 Level Shifting         CNVShift        .... on
   Level shift para.    LevelShift      ....    0.2500
   Turn off err/grad.   ShiftErr        ....    0.0010
 Zerner damping         CNVZerner       .... off
 Static damping         CNVDamp         .... on
   Fraction old density DampFac         ....    0.7000
   Max. Damping (<1)    DampMax         ....    0.9800
   Min. Damping (>=0)   DampMin         ....    0.0000
   Turn off err/grad.   DampErr         ....    0.1000

SCF Procedure:
 Maximum # iterations   MaxIter         ....   125
 SCF integral mode      SCFMode         .... Direct
   Integral package                     .... SHARK and LIBINT hybrid scheme
 Reset frequency        DirectResetFreq ....    20
 Integral Threshold     Thresh          ....  2.500e-11 Eh
 Primitive CutOff       TCut            ....  2.500e-12 Eh

Convergence Tolerance:
 Convergence Check Mode ConvCheckMode   .... Total+1el-Energy
 Convergence forced     ConvForced      .... 0
 Energy Change          TolE            ....  1.000e-08 Eh
 1-El. energy change                    ....  1.000e-05 Eh
 Orbital Gradient       TolG            ....  1.000e-05
 Orbital Rotation angle TolX            ....  1.000e-05
 DIIS Error             TolErr          ....  5.000e-07

------------------------------
INITIAL GUESS: MODEL POTENTIAL
------------------------------
Loading Hartree-Fock densities                     ... done
Calculating cut-offs                               ... done
Initializing the effective Hamiltonian             ... done
Setting up the integral package (SHARK)            ... done
Starting the Coulomb interaction                   ... done (   0.3 sec)
Making the grid                                    ... done (   0.1 sec)
Mapping shells                                     ... done
Starting the XC term evaluation                    ... done (   0.4 sec)
  promolecular density results
     # of electrons  =     80.000562912
     EX              =    -82.615061676
     EC              =     -2.873740395
     EX+EC           =    -85.488802071
Transforming the Hamiltonian                       ... done (   0.0 sec)
Diagonalizing the Hamiltonian                      ... done (   0.0 sec)
Back transforming the eigenvectors                 ... done (   0.0 sec)
Now organizing SCF variables                       ... done
                      ------------------
                      INITIAL GUESS DONE (   0.9 sec)
                      ------------------
             **** ENERGY FILE WAS UPDATED (1-2-3-4-5-fluoropropanoic_acid.en.tmp) ****
Finished Guess after   0.9 sec
Maximum memory used throughout the entire GUESS-calculation: 30.2 MB

-------------------------------------------------------------------------------------------
                                      ORCA LEAN-SCF
                              memory conserving SCF solver
-------------------------------------------------------------------------------------------

--------------------
CPCM SOLVATION MODEL
--------------------
CPCM parameters:
  Epsilon                                         ...      78.3550
  Refrac                                          ...       1.3328
  Rsolv                                           ...       1.3000
  Surface type                                    ... GAUSSIAN VDW
  Discretization scheme                           ... Constant charge density
    Threshold for H atoms                         ...       5.0000 (charges/Ang^2)
    Threshold for non-H atoms                     ...       5.0000 (charges/Ang^2)
  Epsilon function type                           ...         CPCM
Solvent:                                          ... WATER
SMD-CDS solvent descriptors:
  Soln                                            ...       1.3328
  Soln25                                          ...       1.3323
  Sola                                            ...       0.0000
  Solb                                            ...       0.0000
  Solg                                            ...       0.0000
  Solc                                            ...       0.0000
  Solh                                            ...       0.0000
Radii:
  Scheme                                          ... Element-dependent radii
  Radius for C  used is    3.4960 Bohr (=   1.8500 Ang.)
  Radius for F  used is    3.2692 Bohr (=   1.7300 Ang.)
  Radius for O  used is    2.8724 Bohr (=   1.5200 Ang.)
  Radius for H  used is    2.2677 Bohr (=   1.2000 Ang.)
Calculating surface                               ...        done! (  0.0s)
Cavity surface points                             ...          891
Cavity Volume                                     ...     732.5625
Cavity Surface-area                               ...     463.2314
Calculating surface distance matrix               ...        done! (  0.0s)
Performing Cholesky decomposition & store         ...        done! (  0.0s)
Overall time for CPCM initialization              ...                 0.0s

----------------------------------------D-I-I-S--------------------------------------------
Iteration    Energy (Eh)           Delta-E    RMSDP     MaxDP     DIISErr   Damp  Time(sec)
-------------------------------------------------------------------------------------------
               ***  Starting incremental Fock matrix formation  ***
    1    -763.4598544769102091     0.00e+00  1.83e-03  1.79e-01  2.86e-01  0.700   2.7
    2    -763.5669011149981316    -1.07e-01  1.45e-03  1.68e-01  8.88e-02  0.700   2.5
                               ***Turning on AO-DIIS***
    3    -763.5977022810151311    -3.08e-02  5.51e-04  5.50e-02  2.63e-02  0.700   2.3
    4    -763.6198395638404008    -2.21e-02  5.68e-04  2.69e-02  1.93e-02  0.000   2.3
    5    -763.6718075583781911    -5.20e-02  4.09e-04  5.09e-02  5.40e-03  0.000   2.3
    6    -763.6720513443846130    -2.44e-04  1.11e-04  1.31e-02  3.35e-03  0.000   2.2
                              *** Initializing SOSCF ***
---------------------------------------S-O-S-C-F--------------------------------------
Iteration    Energy (Eh)           Delta-E    RMSDP     MaxDP     MaxGrad    Time(sec)
--------------------------------------------------------------------------------------
    7    -763.6720737223776041    -2.24e-05  2.98e-05  3.33e-03  1.16e-03     2.2
               *** Restarting incremental Fock matrix formation ***
    8    -763.6720760582862795    -2.34e-06  1.86e-05  2.05e-03  1.01e-04     2.6
    9    -763.6720760880695025    -2.98e-08  4.89e-06  2.20e-04  1.44e-04     2.2
   10    -763.6720762149096799    -1.27e-07  6.33e-06  5.76e-04  6.90e-05     2.0
   11    -763.6720762225910448    -7.68e-09  2.20e-06  2.37e-04  3.10e-05     2.1
                 **** Energy Check signals convergence ****

               *****************************************************
               *                     SUCCESS                       *
               *           SCF CONVERGED AFTER  11 CYCLES          *
               *****************************************************


SMD CDS free energy correction energy :                 6.10764     Kcal/mol
Total Energy after SMD CDS correction =              -763.662343144 Eh
             **** ENERGY FILE WAS UPDATED (1-2-3-4-5-fluoropropanoic_acid.en.tmp) ****

----------------
TOTAL SCF ENERGY
----------------

Total Energy       :       -763.66234314373924 Eh          -20780.30881 eV

Components:
Nuclear Repulsion  :        704.92892359271434 Eh           19182.09121 eV
Electronic Energy  :      -1468.57840048665912 Eh          -39962.04991 eV
One Electron Energy:      -2457.69831734424906 Eh          -66877.37119 eV
Two Electron Energy:        989.11991685759006 Eh           26915.32129 eV
CPCM Dielectric    :         -0.02259938645741 Eh              -0.61496 eV
SMD CDS (Gcds)     :          0.00973313666297 Eh               0.26485 eV

Virial components:
Potential Energy   :      -1530.98350663723841 Eh          -41660.17918 eV
Kinetic Energy     :        767.32116349349928 Eh           20879.87037 eV
Virial Ratio       :          1.99523169629116

DFT components:
N(Alpha)           :       40.000003790665 electrons
N(Beta)            :       40.000003790665 electrons
N(Total)           :       80.000007581330 electrons
E(X)               :      -83.625738793176 Eh       
E(C)               :       -2.858669599340 Eh       
E(XC)              :      -86.484408392516 Eh       

CPCM Solvation Model Properties:
Surface-charge          :         -0.02191682065345
Corrected charge        :         -0.00000000000000
Outlying charge corr.   :          0.00004060416945 Eh               0.00110 eV
Free-energy (cav+disp)  :          0.00973313666297 Eh               0.26485 eV

---------------
SCF CONVERGENCE
---------------

  Last Energy change         ...    7.6814e-09  Tolerance :   1.0000e-08
  Last MAX-Density change    ...    2.3705e-04  Tolerance :   1.0000e-07
  Last RMS-Density change    ...    2.2012e-06  Tolerance :   5.0000e-09
  Last DIIS Error            ...    1.1599e-03  Tolerance :   5.0000e-07
  Last Orbital Gradient      ...    3.1041e-05  Tolerance :   1.0000e-05
  Last Orbital Rotation      ...    2.8714e-05  Tolerance :   1.0000e-05


----------------
ORBITAL ENERGIES
----------------

  NO   OCC          E(Eh)            E(eV) 
   0   2.0000     -24.304853      -661.3687 
   1   2.0000     -24.304694      -661.3643 
   2   2.0000     -24.289954      -660.9633 
   3   2.0000     -24.282931      -660.7722 
   4   2.0000     -24.279748      -660.6855 
   5   2.0000     -18.816464      -512.0220 
   6   2.0000     -18.751017      -510.2411 
   7   2.0000     -10.062521      -273.8151 
   8   2.0000     -10.020786      -272.6794 
   9   2.0000     -10.005560      -272.2651 
  10   2.0000      -1.418705       -38.6049 
  11   2.0000      -1.372463       -37.3466 
  12   2.0000      -1.244788       -33.8724 
  13   2.0000      -1.236802       -33.6551 
  14   2.0000      -1.226323       -33.3699 
  15   2.0000      -1.043935       -28.4069 
  16   2.0000      -0.952887       -25.9294 
  17   2.0000      -0.726447       -19.7676 
  18   2.0000      -0.676674       -18.4132 
  19   2.0000      -0.649532       -17.6747 
  20   2.0000      -0.635911       -17.3040 
  21   2.0000      -0.615446       -16.7471 
  22   2.0000      -0.611664       -16.6442 
  23   2.0000      -0.590900       -16.0792 
  24   2.0000      -0.576765       -15.6946 
  25   2.0000      -0.521248       -14.1839 
  26   2.0000      -0.470051       -12.7907 
  27   2.0000      -0.469321       -12.7709 
  28   2.0000      -0.454004       -12.3541 
  29   2.0000      -0.443663       -12.0727 
  30   2.0000      -0.419102       -11.4043 
  31   2.0000      -0.417569       -11.3626 
  32   2.0000      -0.396778       -10.7969 
  33   2.0000      -0.389467       -10.5979 
  34   2.0000      -0.375090       -10.2067 
  35   2.0000      -0.354030        -9.6337 
  36   2.0000      -0.345167        -9.3925 
  37   2.0000      -0.299636        -8.1535 
  38   2.0000      -0.272678        -7.4199 
  39   2.0000      -0.223241        -6.0747 
  40   0.0000      -0.049563        -1.3487 
  41   0.0000       0.028382         0.7723 
  42   0.0000       0.094698         2.5769 
  43   0.0000       0.110185         2.9983 
  44   0.0000       0.141580         3.8526 
  45   0.0000       0.142793         3.8856 
  46   0.0000       0.155512         4.2317 
  47   0.0000       0.202721         5.5163 
  48   0.0000       0.216107         5.8806 
  49   0.0000       0.216383         5.8881 
  50   0.0000       0.225828         6.1451 
*Only the first 10 virtual orbitals were printed.

                    ********************************
                    * MULLIKEN POPULATION ANALYSIS *
                    ********************************

-----------------------
MULLIKEN ATOMIC CHARGES
-----------------------
   0 C :    0.042193
   1 C :   -0.032852
   2 F :    0.011117
   3 F :    0.003432
   4 F :    0.003030
   5 C :    0.182661
   6 F :    0.046651
   7 F :    0.042428
   8 O :   -0.366539
   9 O :   -0.200704
  10 H :    0.268585
Sum of atomic charges:    0.0000000

--------------------------------
MULLIKEN REDUCED ORBITAL CHARGES
--------------------------------
  0 C s       :     2.940886  s :     2.940886
      pz      :     0.728758  p :     2.361656
      px      :     0.866820
      py      :     0.766078
      dz2     :     0.130040  d :     0.575130
      dxz     :     0.108531
      dyz     :     0.125300
      dx2y2   :     0.105165
      dxy     :     0.106094
      f0      :     0.013099  f :     0.080135
      f+1     :     0.010895
      f-1     :     0.014564
      f+2     :     0.008689
      f-2     :     0.015249
      f+3     :     0.011347
      f-3     :     0.006291

  1 C s       :     3.128436  s :     3.128436
      pz      :     0.683489  p :     2.398495
      px      :     0.939980
      py      :     0.775026
      dz2     :     0.110704  d :     0.453288
      dxz     :     0.093110
      dyz     :     0.096800
      dx2y2   :     0.048752
      dxy     :     0.103922
      f0      :     0.010970  f :     0.052634
      f+1     :     0.005759
      f-1     :     0.010138
      f+2     :     0.008351
      f-2     :     0.009969
      f+3     :     0.004645
      f-3     :     0.002802

  2 F s       :     3.819216  s :     3.819216
      pz      :     1.836857  p :     5.139004
      px      :     1.584218
      py      :     1.717929
      dz2     :     0.003514  d :     0.028928
      dxz     :     0.004995
      dyz     :     0.004966
      dx2y2   :     0.009135
      dxy     :     0.006318
      f0      :     0.000159  f :     0.001735
      f+1     :     0.000194
      f-1     :     0.000161
      f+2     :     0.000106
      f-2     :     0.000321
      f+3     :     0.000473
      f-3     :     0.000321

  3 F s       :     3.815375  s :     3.815375
      pz      :     1.700375  p :     5.150698
      px      :     1.838538
      py      :     1.611785
      dz2     :     0.008001  d :     0.028759
      dxz     :     0.003822
      dyz     :     0.005886
      dx2y2   :     0.004220
      dxy     :     0.006830
      f0      :     0.000236  f :     0.001736
      f+1     :     0.000063
      f-1     :     0.000455
      f+2     :     0.000289
      f-2     :     0.000323
      f+3     :     0.000219
      f-3     :     0.000150

  4 F s       :     3.815847  s :     3.815847
      pz      :     1.533652  p :     5.150618
      px      :     1.824931
      py      :     1.792035
      dz2     :     0.008755  d :     0.028768
      dxz     :     0.007758
      dyz     :     0.008186
      dx2y2   :     0.001611
      dxy     :     0.002458
      f0      :     0.000545  f :     0.001738
      f+1     :     0.000349
      f-1     :     0.000431
      f+2     :     0.000162
      f-2     :     0.000210
      f+3     :     0.000019
      f-3     :     0.000022

  5 C s       :     3.147622  s :     3.147622
      pz      :     0.773684  p :     2.410854
      px      :     0.863143
      py      :     0.774026
      dz2     :     0.010143  d :     0.233584
      dxz     :     0.027307
      dyz     :     0.053081
      dx2y2   :     0.057864
      dxy     :     0.085189
      f0      :     0.002883  f :     0.025279
      f+1     :     0.001135
      f-1     :     0.001871
      f+2     :     0.003083
      f-2     :     0.002525
      f+3     :     0.010285
      f-3     :     0.003497

  6 F s       :     3.811866  s :     3.811866
      pz      :     1.558101  p :     5.111414
      px      :     1.812343
      py      :     1.740970
      dz2     :     0.008811  d :     0.028453
      dxz     :     0.007658
      dyz     :     0.007140
      dx2y2   :     0.001687
      dxy     :     0.003157
      f0      :     0.000504  f :     0.001616
      f+1     :     0.000289
      f-1     :     0.000374
      f+2     :     0.000167
      f-2     :     0.000241
      f+3     :     0.000028
      f-3     :     0.000014

  7 F s       :     3.813123  s :     3.813123
      pz      :     1.690878  p :     5.114269
      px      :     1.815269
      py      :     1.608122
      dz2     :     0.008393  d :     0.028562
      dxz     :     0.004559
      dyz     :     0.005621
      dx2y2   :     0.003611
      dxy     :     0.006378
      f0      :     0.000265  f :     0.001619
      f+1     :     0.000081
      f-1     :     0.000439
      f+2     :     0.000262
      f-2     :     0.000326
      f+3     :     0.000156
      f-3     :     0.000090

  8 O s       :     3.789869  s :     3.789869
      pz      :     1.417354  p :     4.546278
      px      :     1.779643
      py      :     1.349281
      dz2     :     0.002568  d :     0.028644
      dxz     :     0.000235
      dyz     :     0.010209
      dx2y2   :     0.007499
      dxy     :     0.008133
      f0      :     0.000177  f :     0.001748
      f+1     :     0.000024
      f-1     :     0.000162
      f+2     :     0.000434
      f-2     :     0.000023
      f+3     :     0.000555
      f-3     :     0.000373

  9 O s       :     3.732817  s :     3.732817
      pz      :     1.684345  p :     4.437862
      px      :     1.491657
      py      :     1.261859
      dz2     :     0.003688  d :     0.028709
      dxz     :     0.006446
      dyz     :     0.001451
      dx2y2   :     0.009549
      dxy     :     0.007574
      f0      :     0.000253  f :     0.001317
      f+1     :     0.000204
      f-1     :     0.000174
      f+2     :     0.000029
      f-2     :     0.000160
      f+3     :     0.000289
      f-3     :     0.000207

 10 H s       :     0.650761  s :     0.650761
      pz      :     0.026573  p :     0.072267
      px      :     0.016631
      py      :     0.029063
      dz2     :     0.000935  d :     0.008387
      dxz     :     0.000157
      dyz     :     0.002816
      dx2y2   :     0.002132
      dxy     :     0.002347



                     *******************************
                     * LOEWDIN POPULATION ANALYSIS *
                     *******************************

----------------------
LOEWDIN ATOMIC CHARGES
----------------------
   0 C :   -1.727378
   1 C :   -1.208949
   2 F :    0.591038
   3 F :    0.583562
   4 F :    0.586456
   5 C :   -0.478068
   6 F :    0.608462
   7 F :    0.607056
   8 O :    0.065920
   9 O :    0.426429
  10 H :   -0.054528

-------------------------------
LOEWDIN REDUCED ORBITAL CHARGES
-------------------------------
  0 C s       :     2.648301  s :     2.648301
      pz      :     0.891381  p :     2.751720
      px      :     0.947510
      py      :     0.912828
      dz2     :     0.408608  d :     1.752671
      dxz     :     0.284770
      dyz     :     0.401648
      dx2y2   :     0.299003
      dxy     :     0.358643
      f0      :     0.097374  f :     0.574687
      f+1     :     0.080616
      f-1     :     0.108533
      f+2     :     0.060625
      f-2     :     0.103479
      f+3     :     0.075375
      f-3     :     0.048684

  1 C s       :     2.673388  s :     2.673388
      pz      :     0.861350  p :     2.758546
      px      :     0.968600
      py      :     0.928596
      dz2     :     0.359978  d :     1.392299
      dxz     :     0.235441
      dyz     :     0.345103
      dx2y2   :     0.139829
      dxy     :     0.311948
      f0      :     0.081918  f :     0.384716
      f+1     :     0.054165
      f-1     :     0.076004
      f+2     :     0.055857
      f-2     :     0.070393
      f+3     :     0.025222
      f-3     :     0.021159

  2 F s       :     3.391520  s :     3.391520
      pz      :     1.684843  p :     4.935550
      px      :     1.598200
      py      :     1.652507
      dz2     :     0.009108  d :     0.075592
      dxz     :     0.011798
      dyz     :     0.012053
      dx2y2   :     0.023608
      dxy     :     0.019026
      f0      :     0.000557  f :     0.006300
      f+1     :     0.000740
      f-1     :     0.000551
      f+2     :     0.000313
      f-2     :     0.001177
      f+3     :     0.001886
      f-3     :     0.001077

  3 F s       :     3.390443  s :     3.390443
      pz      :     1.651584  p :     4.944422
      px      :     1.669725
      py      :     1.623113
      dz2     :     0.019546  d :     0.075306
      dxz     :     0.009172
      dyz     :     0.018331
      dx2y2   :     0.010918
      dxy     :     0.017339
      f0      :     0.000865  f :     0.006267
      f+1     :     0.000163
      f-1     :     0.001654
      f+2     :     0.001015
      f-2     :     0.001225
      f+3     :     0.000866
      f-3     :     0.000478

  4 F s       :     3.389950  s :     3.389950
      pz      :     1.613525  p :     4.941868
      px      :     1.663027
      py      :     1.665317
      dz2     :     0.025253  d :     0.075431
      dxz     :     0.019785
      dyz     :     0.021919
      dx2y2   :     0.002732
      dxy     :     0.005742
      f0      :     0.002031  f :     0.006295
      f+1     :     0.001224
      f-1     :     0.001532
      f+2     :     0.000536
      f-2     :     0.000815
      f+3     :     0.000073
      f-3     :     0.000084

  5 C s       :     2.769405  s :     2.769405
      pz      :     0.739039  p :     2.647806
      px      :     0.931532
      py      :     0.977235
      dz2     :     0.067540  d :     0.908150
      dxz     :     0.088195
      dyz     :     0.161760
      dx2y2   :     0.261189
      dxy     :     0.329466
      f0      :     0.009395  f :     0.152707
      f+1     :     0.007993
      f-1     :     0.011887
      f+2     :     0.022178
      f-2     :     0.014173
      f+3     :     0.061706
      f-3     :     0.025374

  6 F s       :     3.385105  s :     3.385105
      pz      :     1.626786  p :     4.922107
      px      :     1.653773
      py      :     1.641548
      dz2     :     0.025224  d :     0.078237
      dxz     :     0.020958
      dyz     :     0.020017
      dx2y2   :     0.003424
      dxy     :     0.008614
      f0      :     0.002021  f :     0.006089
      f+1     :     0.001047
      f-1     :     0.001284
      f+2     :     0.000513
      f-2     :     0.001022
      f+3     :     0.000146
      f-3     :     0.000055

  7 F s       :     3.384396  s :     3.384396
      pz      :     1.655385  p :     4.923932
      px      :     1.653005
      py      :     1.615543
      dz2     :     0.021742  d :     0.078509
      dxz     :     0.011889
      dyz     :     0.017622
      dx2y2   :     0.009262
      dxy     :     0.017994
      f0      :     0.001033  f :     0.006106
      f+1     :     0.000230
      f-1     :     0.001620
      f+2     :     0.000901
      f-2     :     0.001313
      f+3     :     0.000719
      f-3     :     0.000291

  8 O s       :     3.405614  s :     3.405614
      pz      :     1.331067  p :     4.457118
      px      :     1.631954
      py      :     1.494096
      dz2     :     0.007623  d :     0.065215
      dxz     :     0.000417
      dyz     :     0.013829
      dx2y2   :     0.023887
      dxy     :     0.019457
      f0      :     0.000458  f :     0.006133
      f+1     :     0.000117
      f-1     :     0.000939
      f+2     :     0.000847
      f-2     :     0.000085
      f+3     :     0.001900
      f-3     :     0.001787

  9 O s       :     3.209748  s :     3.209748
      pz      :     1.510113  p :     4.277270
      px      :     1.478296
      py      :     1.288862
      dz2     :     0.009592  d :     0.080369
      dxz     :     0.008901
      dyz     :     0.004709
      dx2y2   :     0.033512
      dxy     :     0.023655
      f0      :     0.000402  f :     0.006183
      f+1     :     0.000457
      f-1     :     0.000554
      f+2     :     0.000341
      f-2     :     0.000599
      f+3     :     0.002115
      f-3     :     0.001716

 10 H s       :     0.643952  s :     0.643952
      pz      :     0.087537  p :     0.316861
      px      :     0.080184
      py      :     0.149140
      dz2     :     0.008807  d :     0.093716
      dxz     :     0.001779
      dyz     :     0.029863
      dx2y2   :     0.023508
      dxy     :     0.029760



                      *****************************
                      * MAYER POPULATION ANALYSIS *
                      *****************************

  NA   - Mulliken gross atomic population
  ZA   - Total nuclear charge
  QA   - Mulliken gross atomic charge
  VA   - Mayer's total valence
  BVA  - Mayer's bonded valence
  FA   - Mayer's free valence

  ATOM       NA         ZA         QA         VA         BVA        FA
  0 C      5.9578     6.0000     0.0422     5.2222     5.2222     0.0000
  1 C      6.0329     6.0000    -0.0329     4.4744     4.4744     0.0000
  2 F      8.9889     9.0000     0.0111     1.3531     1.3531     0.0000
  3 F      8.9966     9.0000     0.0034     1.3294     1.3294     0.0000
  4 F      8.9970     9.0000     0.0030     1.3366     1.3366     0.0000
  5 C      5.8173     6.0000     0.1827     4.2147     4.2147    -0.0000
  6 F      8.9533     9.0000     0.0467     1.3829     1.3829    -0.0000
  7 F      8.9576     9.0000     0.0424     1.3799     1.3799     0.0000
  8 O      8.3665     8.0000    -0.3665     2.1260     2.1260    -0.0000
  9 O      8.2007     8.0000    -0.2007     2.2837     2.2837     0.0000
 10 H      0.7314     1.0000     0.2686     0.9873     0.9873     0.0000

  Mayer bond orders larger than 0.100000
B(  0-C ,  1-C ) :   0.9126 B(  0-C ,  2-F ) :   1.3891 B(  0-C ,  3-F ) :   1.3917 
B(  0-C ,  4-F ) :   1.3971 B(  1-C ,  5-C ) :   0.8598 B(  1-C ,  6-F ) :   1.3552 
B(  1-C ,  7-F ) :   1.3530 B(  5-C ,  8-O ) :   2.0277 B(  5-C ,  9-O ) :   1.2725 
B(  9-O , 10-H ) :   0.9200 

-------
TIMINGS
-------

Total SCF time: 0 days 0 hours 0 min 27 sec 

Total time                  ....      27.671 sec
Sum of individual times     ....      25.582 sec  ( 92.4%)

SCF preparation             ....       0.096 sec  (  0.3%)
Fock matrix formation       ....      24.981 sec  ( 90.3%)
  Startup                   ....       0.005 sec  (  0.0% of F)
  Split-RI-J                ....       7.604 sec  ( 30.4% of F)
  XC integration            ....      12.998 sec  ( 52.0% of F)
    XC Preparation          ....       0.000 sec  (  0.0% of XC)
    Basis function eval.    ....       3.241 sec  ( 24.9% of XC)
    Density eval.           ....       4.158 sec  ( 32.0% of XC)
    XC-Functional eval.     ....       0.346 sec  (  2.7% of XC)
    XC-Potential eval.      ....       4.975 sec  ( 38.3% of XC)
  CPCM terms                ....       6.322 sec  ( 25.3% of F)
Diagonalization             ....       0.000 sec  (  0.0%)
Density matrix formation    ....       0.034 sec  (  0.1%)
Total Energy calculation    ....       0.009 sec  (  0.0%)
Population analysis         ....       0.020 sec  (  0.1%)
Orbital Transformation      ....       0.059 sec  (  0.2%)
Orbital Orthonormalization  ....       0.000 sec  (  0.0%)
DIIS solution               ....       0.273 sec  (  1.0%)
SOSCF solution              ....       0.110 sec  (  0.4%)
Finished LeanSCF after  27.7 sec

Maximum memory used throughout the entire LEANSCF-calculation: 35.7 MB

------------------------------------------------------------------------------
                         ORCA PROPERTY INTEGRAL CALCULATIONS
------------------------------------------------------------------------------

GBWName                                   ... 1-2-3-4-5-fluoropropanoic_acid.gbw
Number of atoms                           ...     11
Number of basis functions                 ...    324
Max core memory                           ...  28672 MB

Dipole integrals                          ... YES
Quadrupole integrals                      ...  NO
Linear momentum integrals                 ...  NO
Angular momentum integrals                ...  NO
Higher moments length integrals           ...  NO
Higher moments velocity integrals         ...  NO
Kinetic energy integrals                  ...  NO
GIAO right hand sides                     ...  NO
GIAO dipole derivative integrals          ...  NO
SOC integrals                             ...  NO
EPR diamagnetic integrals (GIAO)          ...  NO
EPR gauge integrals                       ...  NO
Field gradient integrals                  ...  NO (   0 nuclei)
Spin-dipole/Fermi contact integrals       ...  NO (   0 nuclei)
Contact density integrals                 ...  NO (   0 nuclei)
Nucleus-orbit integrals                   ...  NO (   0 nuclei)
Geometric perturbations                   ...  NO (  11 nuclei)

Choice of electric origin   ... Center of mass
Position of electric origin ... ( -9.2006,  3.0867, -0.0465) 
Choice of magnetic origin   ... GIAO
Position of magnetic origin ... (  0.0000,  0.0000,  0.0000) 

Calculating integrals                     ... Electric Dipole (Length)     done (  0.0 sec)

Property integrals calculated in   0.0 sec

Maximum memory used throughout the entire PROPINT-calculation: 30.9 MB


-------------------------------------------------------------------------------
                          DFT DISPERSION CORRECTION                            
                                                                               
                                DFTD4 V3.4.0                                   
-------------------------------------------------------------------------------
The PBE functional is recognized
Active option DFTDOPT                   ...         5   

-------------------------   ----------------
Dispersion correction           -0.010196487
-------------------------   ----------------


-------------------------   --------------------
FINAL SINGLE POINT ENERGY      -763.672539631092
-------------------------   --------------------

------------------------------------------------------------------------------
                         ORCA SCF GRADIENT CALCULATION
------------------------------------------------------------------------------

Nuc. rep. gradient        (SHARK) ... done (  0.0 sec)
HCore & Overlap gradient  (SHARK) ... done (  0.4 sec)
Split-RIJ-J gradient      (SHARK) ... done (  3.5 sec)
XC gradient                       ... done (  8.8 sec)
CPCM gradient                     ... done (  1.6 sec)
SMD gradient                      ... done (  0.0 sec)
Dispersion correction             ... done (  0.0 sec)

-------------------
DISPERSION GRADIENT
-------------------

   1   C   :    0.000034931    0.000211470   -0.000033684
   2   C   :   -0.000164468   -0.000044997    0.000000695
   3   F   :   -0.000186738    0.000086999   -0.000037188
   4   F   :   -0.000129524   -0.000113001   -0.000096814
   5   F   :   -0.000156186   -0.000049360    0.000130567
   6   C   :    0.000185422   -0.000013936    0.000011239
   7   F   :   -0.000089725    0.000060899   -0.000062704
   8   F   :   -0.000094670    0.000074605    0.000030074
   9   O   :    0.000243652   -0.000276868    0.000040194
  10   O   :    0.000291944    0.000042451    0.000015256
  11   H   :    0.000065363    0.000021738    0.000002366

Difference to translation invariance:
           :   -0.0000000000    0.0000000000    0.0000000000

Difference to rotation invariance:
           :    0.0000000000   -0.0000000000   -0.0000000000

Norm of the Dispersion gradient    ...    0.0007058676
RMS gradient                       ...    0.0001228758
MAX gradient                       ...    0.0002919440

------------------
CARTESIAN GRADIENT
------------------

   1   C   :   -0.354457588   -0.171599060    0.015856026
   2   C   :    0.025384716    0.463876680   -0.082970492
   3   F   :    0.396072628   -0.382848230    0.139464938
   4   F   :   -0.037546255    0.424467283    0.379320286
   5   F   :    0.049694110    0.183268635   -0.540660358
   6   C   :    0.001277126    0.050188231   -0.001477278
   7   F   :   -0.042038607   -0.196368203    0.505123095
   8   F   :    0.007413942   -0.363159276   -0.407396252
   9   O   :   -0.006161999    0.014410227   -0.005050366
  10   O   :   -0.029368698   -0.011988801   -0.002077255
  11   H   :   -0.010269374   -0.010247485   -0.000132344

Difference to translation invariance:
           :   -0.0000000000    0.0000000000    0.0000000000

Difference to rotation invariance:
           :    0.0013950907    0.0005182596   -0.0000536917

Norm of the Cartesian gradient     ...    1.3972059612
RMS gradient                       ...    0.2432223386
MAX gradient                       ...    0.5406603582

-------
TIMINGS
-------

Total SCF gradient time     ....       14.279 sec

Densities                   ....       0.002 sec  (  0.0%)
One electron gradient       ....       0.398 sec  (  2.8%)
RI-J Coulomb gradient       ....       3.508 sec  ( 24.6%)
XC gradient                 ....       8.764 sec  ( 61.4%)
CPCM gradient               ....       1.578 sec  ( 11.1%)
   A-Matrix (El+Nuc)        ....       0.023 sec  (  0.2%)
   Potential                ....       1.555 sec  ( 10.9%)
SMD gradient                ....       0.001 sec  (  0.0%)

Maximum memory used throughout the entire SCFGRAD-calculation: 49.4 MB
------------------------------------------------------------------------------
                         ORCA GEOMETRY RELAXATION STEP
------------------------------------------------------------------------------

Reading the OPT-File                    .... done
Getting information on internals        .... done
Copying old internal coords+grads       .... done
Making the new internal coordinates     .... (2022 redundants) done
Validating the new internal coordinates .... (2022 redundants) done
Calculating the B-matrix                .... done
Calculating the G,G- and P matrices     .... done
Transforming gradient to internals      .... done
Projecting the internal gradient        .... done
Number of atoms                         ....  11
Number of internal coordinates          ....  78
Current Energy                          ....  -763.672539631 Eh
Current gradient norm                   ....     1.397205961 Eh/bohr
Maximum allowed component of the step   ....  0.300
Current trust radius                    ....  0.300
Evaluating the initial hessian          ....  (Almloef) done
Projecting the Hessian                  .... done
Forming the augmented Hessian           .... done
Diagonalizing the augmented Hessian     .... done
Last element of RFO vector              ....  0.834444283
Lowest eigenvalues of augmented Hessian:
 -0.494437375  0.010277909  0.010777399  0.019407219  0.030562292
Length of the computed step             ....  0.660430332
Warning: the length of the step is outside the trust region - taking restricted step instead
The input lambda is                     ....     0.009270
   iter:   5  x=   -0.218855  g=    7.451647 f(x)=     1.390486
   iter:  10  x=   -1.841630  g=    0.079431 f(x)=     0.006417
The output lambda is                    ....    -1.845940 (14 iterations)
The final length of the internal step   ....  0.300000000
Converting the step to Cartesian space:
 Initial RMS(Int)=    0.0339683110
Transforming coordinates:
 Iter   0:  RMS(Cart)=    0.0389342346 RMS(Int)=    0.0339508207
done
Storing new coordinates                 .... done

                                .--------------------.
          ----------------------|Geometry convergence|-------------------------
          Item                value                   Tolerance       Converged
          ---------------------------------------------------------------------
          RMS gradient        0.0865493241            0.0001000000      NO
          MAX gradient        0.3137456937            0.0003000000      NO
          RMS step            0.0339683110            0.0020000000      NO
          MAX step            0.1207980234            0.0040000000      NO
          -------------------------------------------------------------------------
          ........................................................
          Max(Bonds)      0.0639      Max(Angles)    2.11
          Max(Dihed)        1.03      Max(Improp)    0.00
          ---------------------------------------------------------------------

The optimization has not yet converged - more geometry cycles are needed


    ---------------------------------------------------------------------------
                         Redundant Internal Coordinates
                            (Angstroem and degrees)

        Definition                    Value    dE/dq     Step     New-Value
    ----------------------------------------------------------------------------
     1. B(C   1,C   0)                1.5419 -0.073399  0.0176    1.5595   
     2. B(F   2,C   0)                1.0924 -0.160751  0.0358    1.1283   
     3. B(F   3,F   2)                1.7702 -0.249588  0.0561    1.8262   
     4. B(F   3,C   0)                1.0928 -0.162791  0.0362    1.1291   
     5. B(F   4,F   2)                1.7716 -0.250762  0.0563    1.8279   
     6. B(F   4,F   3)                1.7743 -0.250946  0.0563    1.8306   
     7. B(F   4,C   0)                1.0920 -0.163675  0.0364    1.1284   
     8. B(C   5,C   1)                1.5178 -0.046025  0.0111    1.5290   
     9. B(F   6,C   1)                1.0935 -0.284167  0.0541    1.1476   
    10. B(F   7,F   6)                1.7600 -0.313746  0.0639    1.8239   
    11. B(F   7,C   1)                1.0930 -0.289957  0.0549    1.1479   
    12. B(O   8,C   5)                1.2148 -0.014550  0.0026    1.2174   
    13. B(O   9,C   5)                1.3059 -0.027894  0.0059    1.3118   
    14. B(H  10,F   6)                2.3210 -0.017021  0.0041    2.3251   
    15. B(H  10,O   9)                0.9721 -0.011203  0.0025    0.9746   
    16. B(H  10,F   7)                2.2412 -0.004657  0.0016    2.2428   
    17. A(C   1,C   0,F   4)          110.54 -0.012246    0.26    110.80   
    18. A(F   3,C   0,F   4)          108.61  0.011774   -0.24    108.37   
    19. A(F   2,C   0,F   3)          108.20  0.010323   -0.21    107.99   
    20. A(C   1,C   0,F   2)          110.26 -0.005077    0.07    110.33   
    21. A(C   1,C   0,F   3)          110.77 -0.013789    0.30    111.07   
    22. A(F   2,C   0,F   4)          108.39  0.010227   -0.21    108.18   
    23. A(F   6,C   1,F   7)          107.21  0.121056   -2.11    105.10   
    24. A(C   5,C   1,F   7)          109.28 -0.055115    0.92    110.19   
    25. A(C   0,C   1,F   6)          109.21 -0.027768    0.53    109.74   
    26. A(C   0,C   1,F   7)          109.08 -0.039455    0.72    109.79   
    27. A(C   5,C   1,F   6)          108.95 -0.014844    0.27    109.21   
    28. A(C   0,C   1,C   5)          112.95  0.022246   -0.43    112.53   
    29. A(F   3,F   2,F   4)           60.13 -0.000098    0.00     60.13   
    30. A(C   0,F   2,F   4)           35.80 -0.005635    0.11     35.91   
    31. A(C   0,F   2,F   3)           35.91 -0.005510    0.11     36.02   
    32. A(C   0,F   3,F   4)           35.68 -0.006060    0.12     35.80   
    33. A(C   0,F   3,F   2)           35.89 -0.004813    0.10     35.99   
    34. A(F   2,F   3,F   4)           59.97 -0.000204    0.00     59.98   
    35. A(F   2,F   4,F   3)           59.90  0.000302   -0.01     59.89   
    36. A(C   0,F   4,F   3)           35.71 -0.005714    0.12     35.83   
    37. A(C   0,F   4,F   2)           35.81 -0.004592    0.09     35.91   
    38. A(O   8,C   5,O   9)          122.24 -0.006590    0.13    122.37   
    39. A(C   1,C   5,O   9)          113.14  0.027727   -0.63    112.51   
    40. A(C   1,C   5,O   8)          124.51 -0.022329    0.53    125.04   
    41. A(C   1,F   6,F   7)           36.39 -0.061563    1.07     37.46   
    42. A(C   1,F   7,F   6)           36.40 -0.059493    1.04     37.44   
    43. A(C   5,O   9,H  10)          107.89  0.013411   -0.28    107.61   
    44. D(F   6,C   1,C   0,F   2)    -53.13 -0.010487    0.17    -52.96   
    45. D(C   5,C   1,C   0,F   3)    -54.79  0.014018   -0.28    -55.07   
    46. D(F   6,C   1,C   0,F   3)     66.61 -0.009750    0.15     66.76   
    47. D(F   6,C   1,C   0,F   4)   -172.96 -0.012114    0.22   -172.74   
    48. D(C   5,C   1,C   0,F   4)     65.64  0.011654   -0.21     65.43   
    49. D(C   5,C   1,C   0,F   2)   -174.53  0.013281   -0.26   -174.79   
    50. D(F   3,F   2,C   0,C   1)    121.29 -0.013500    0.28    121.57   
    51. D(F   4,F   2,C   0,F   3)    117.60  0.025187   -0.51    117.09   
    52. D(F   4,F   2,C   0,C   1)   -121.12  0.011687   -0.23   -121.35   
    53. D(F   3,F   2,C   0,F   4)   -117.60 -0.025187    0.51   -117.09   
    54. D(F   4,F   3,C   0,F   2)   -117.46 -0.024252    0.49   -116.97   
    55. D(F   4,F   3,C   0,C   1)    121.57 -0.016175    0.35    121.92   
    56. D(F   2,F   3,C   0,F   4)    117.46  0.024252   -0.49    116.97   
    57. D(C   0,F   3,F   2,F   4)    -36.71  0.015603   -0.32    -37.03   
    58. D(F   2,F   3,C   0,C   1)   -120.97  0.008077   -0.14   -121.11   
    59. D(F   4,F   3,F   2,C   0)     36.71 -0.015603    0.32     37.03   
    60. D(F   2,F   4,F   3,C   0)     36.93 -0.014383    0.29     37.22   
    61. D(F   3,F   4,F   2,C   0)    -36.82  0.015514   -0.32    -37.14   
    62. D(C   0,F   4,F   2,F   3)     36.82 -0.015514    0.32     37.14   
    63. D(F   3,F   4,C   0,F   2)    117.34  0.024365   -0.49    116.84   
    64. D(F   3,F   4,C   0,C   1)   -121.72  0.017125   -0.38   -122.09   
    65. D(C   0,F   4,F   3,F   2)    -36.93  0.014383   -0.29    -37.22   
    66. D(F   2,F   4,C   0,F   3)   -117.34 -0.024365    0.49   -116.84   
    67. D(F   2,F   4,C   0,C   1)    120.95 -0.007241    0.12    121.06   
    68. D(O   9,C   5,C   1,F   6)     60.90  0.024614   -0.45     60.45   
    69. D(O   9,C   5,C   1,C   0)   -177.55 -0.006476    0.12   -177.42   
    70. D(O   8,C   5,C   1,F   7)    127.75 -0.060517    1.03    128.78   
    71. D(O   8,C   5,C   1,F   6)   -115.41  0.045286   -0.83   -116.24   
    72. D(O   8,C   5,C   1,C   0)      6.14  0.014196   -0.25      5.89   
    73. D(F   7,F   6,C   1,C   5)   -118.15  0.006056   -0.06   -118.21   
    74. D(F   7,F   6,C   1,C   0)    118.05  0.006042   -0.05    118.01   
    75. D(F   6,F   7,C   1,C   5)    117.93  0.020634   -0.37    117.56   
    76. D(F   6,F   7,C   1,C   0)   -118.14 -0.013438    0.17   -117.98   
    77. D(H  10,O   9,C   5,O   8)    178.21 -0.006309    0.10    178.32   
    78. D(H  10,O   9,C   5,C   1)      1.81  0.014530   -0.28      1.52   
    ----------------------------------------------------------------------------

Geometry step timings:
Preparation and reading OPT file:      0.000 s ( 1.683 %)
Internal coordinates            :      0.000 s ( 1.305 %)
B/P matrices and projection     :      0.001 s (18.372 %)
Hessian update/contruction      :      0.000 s (13.049 %)
Making the step                 :      0.001 s (39.286 %)
Converting the step to Cartesian:      0.000 s ( 4.396 %)
Storing new data                :      0.000 s ( 2.335 %)
Checking convergence            :      0.000 s ( 1.545 %)
Final printing                  :      0.001 s (17.960 %)
Total time                      :      0.003 s

Time for energy+gradient        :     44.007 s
Time for complete geometry iter :     44.048 s

         *************************************************************
         *                GEOMETRY OPTIMIZATION CYCLE   2            *
         *************************************************************
---------------------------------
CARTESIAN COORDINATES (ANGSTROEM)
---------------------------------
  C     -5.985545    1.384472   -0.031110
  C     -4.637177    2.164939   -0.100693
  F     -6.846704    2.065622   -0.291005
  F     -5.992504    0.520552   -0.758120
[...]
     27       0.044134   0.055877  -0.049818   0.017737  -0.174441  -0.182001
     28       0.020108   0.005330  -0.208723  -0.002550  -0.189694  -0.064133
     29      -0.022852   0.086558  -0.195418  -0.091207  -0.165853  -0.228064
     30      -0.369385   0.509116   0.709501   0.328464   0.287184   0.127470
     31      -0.451996   0.452161   0.011887   0.209781  -0.272959  -0.051185
     32       0.735296  -0.578790  -0.120441  -0.335268   0.371344  -0.018799
                 24         25         26         27         28         29    
      0       0.082652  -0.034033  -0.304404  -0.355259  -0.059153  -0.410049
      1       0.271396   0.240968  -0.106496   0.743082   0.006323  -0.167557
      2      -0.192417  -0.291820  -0.769088   0.159023  -0.013214   0.116933
      3      -0.044838  -0.135396   0.059107   0.135988   0.093314   0.332334
      4       0.670834  -0.067715  -0.090983  -0.197994  -0.093119   0.164866
      5       0.206536  -0.762651   0.259958   0.101692   0.014054  -0.069450
      6       0.035344   0.056184   0.090693   0.172552   0.007108   0.077057
      7      -0.029422  -0.047216  -0.045111  -0.147216  -0.006409  -0.027325
      8       0.015785   0.020625   0.061936   0.020355   0.003323   0.003705
      9      -0.053307   0.003302   0.051129  -0.016170   0.007665   0.041881
     10      -0.140092  -0.031079   0.141553  -0.219879   0.007326   0.069367
     11      -0.033859   0.001406   0.110540  -0.088770   0.003693   0.019586
     12      -0.006201  -0.018342   0.022912   0.025987   0.005124   0.028114
     13      -0.027104  -0.052328  -0.026966  -0.041181  -0.000623   0.020601
     14       0.109043   0.187101   0.248062  -0.026860   0.000256  -0.064446
     15      -0.133886  -0.138656   0.176972   0.176056  -0.108473  -0.217750
     16      -0.055950  -0.004178   0.033175   0.032094   0.003592  -0.011117
     17      -0.116216  -0.043640   0.050337   0.066199  -0.060865  -0.069034
     18       0.007777   0.033876  -0.036221  -0.021750  -0.006133  -0.016588
     19      -0.054562  -0.056386   0.008856   0.027387   0.005210  -0.016810
     20       0.037743   0.359197  -0.073850  -0.072319  -0.009698   0.032219
     21      -0.021110   0.009034   0.011281  -0.028872  -0.005363  -0.026243
     22      -0.282881   0.062006   0.038885   0.006553   0.036604  -0.044109
     23      -0.102913   0.060163  -0.007631   0.003042   0.012968  -0.011473
     24       0.043697   0.005070  -0.019962  -0.034111   0.011214   0.030373
     25      -0.131772   0.004967   0.038635   0.071533  -0.069240   0.021696
     26      -0.069164  -0.004269   0.028927   0.042802  -0.043752   0.017626
     27       0.052506   0.133732  -0.084079  -0.079562  -0.014473   0.106208
     28       0.093416   0.016142  -0.051251  -0.056514   0.074994  -0.010561
     29       0.100375   0.086753  -0.078175  -0.084428   0.040159   0.049560
     30       0.324562  -0.116209  -0.169235  -0.163922   0.778892  -0.611429
     31       0.113736   0.006258  -0.051195  -0.060703   0.106477  -0.044679
     32       0.234921  -0.069758  -0.141792  -0.133367   0.573572  -0.424954
                 30         31         32    
      0      -0.197321   0.020107  -0.000199
      1      -0.120896   0.023595  -0.000201
      2       0.097753  -0.007004   0.000086
      3      -0.056650   0.010610  -0.000104
      4       0.216890  -0.039190   0.001055
      5      -0.181997   0.011598   0.000231
      6       0.056372  -0.007334   0.000108
      7      -0.013201   0.000391  -0.000012
      8      -0.003122   0.000648  -0.000020
      9       0.021607  -0.001271   0.000011
     10       0.043822  -0.005877   0.000004
     11       0.008387  -0.001462   0.000015
     12       0.009596  -0.001015   0.000013
     13       0.013551  -0.002230   0.000035
     14      -0.039596   0.002835  -0.000024
     15       0.307698  -0.126996   0.000624
     16      -0.019700   0.618604  -0.003453
     17       0.231214   0.352426  -0.002094
     18       0.007469  -0.004308   0.000068
     19      -0.019375   0.004583  -0.000147
     20       0.065874  -0.009906   0.000056
     21       0.006034   0.004445  -0.000025
     22      -0.054157  -0.006122  -0.000231
     23      -0.004902  -0.002362  -0.000104
     24      -0.032575   0.081376  -0.000045
     25      -0.033794  -0.389739   0.001793
     26      -0.052851  -0.222340   0.001275
     27      -0.169451   0.028562   0.017913
     28       0.009202  -0.050912  -0.054443
     29      -0.117535  -0.014988  -0.024171
     30       0.661331  -0.418963  -0.290716
     31       0.034579  -0.016822   0.873259
     32       0.451003  -0.294106   0.386020


-----------
IR SPECTRUM
-----------

 Mode   freq       eps      Int      T**2         TX        TY        TZ
       cm**-1   L/(mol*cm) km/mol    a.u.
----------------------------------------------------------------------------
  6:     48.70   0.001183    5.98  0.007579  (-0.013622 -0.046575  0.072276)
  7:     70.32   0.000849    4.29  0.003769  ( 0.044278  0.021878 -0.036473)
  8:    141.70   0.001122    5.67  0.002471  (-0.024313 -0.029176  0.032070)
  9:    201.18   0.002089   10.55  0.003240  ( 0.030608  0.016316  0.045130)
 10:    239.20   0.003189   16.12  0.004161  ( 0.039975 -0.007634  0.050046)
 11:    270.95   0.001591    8.04  0.001832  ( 0.042634 -0.003362 -0.001813)
 12:    336.88   0.000094    0.47  0.000087  ( 0.001254  0.007304 -0.005643)
 13:    346.36   0.002097   10.60  0.001890  (-0.041593 -0.001905 -0.012497)
 14:    368.98   0.000535    2.70  0.000452  ( 0.005166 -0.003802 -0.020278)
 15:    478.38   0.003683   18.61  0.002403  (-0.039973 -0.015343  0.023862)
 16:    511.23   0.001422    7.19  0.000868  ( 0.025610 -0.011266 -0.009240)
 17:    532.05   0.029040  146.75  0.017033  (-0.066236 -0.066666  0.090560)
 18:    571.42   0.008546   43.19  0.004667  (-0.024249 -0.019843  0.060706)
 19:    594.18   0.001386    7.00  0.000728  ( 0.015182  0.011270 -0.019243)
 20:    669.83   0.008951   45.23  0.004170  (-0.053313  0.034228  0.012494)
 21:    735.59   0.001213    6.13  0.000514  ( 0.016847  0.015185 -0.000128)
 22:    747.48   0.003858   19.50  0.001611  ( 0.014221  0.035559  0.012007)
 23:    968.10   0.047191  238.48  0.015212  ( 0.120833  0.021897  0.011473)
 24:   1075.75   0.058756  296.93  0.017045  (-0.005420  0.130320 -0.005642)
 25:   1093.30   0.119678  604.80  0.034160  (-0.050845  0.008653 -0.177482)
 26:   1113.09   0.029667  149.92  0.008317  (-0.026686 -0.018263 -0.085274)
 27:   1126.48   0.061454  310.56  0.017024  (-0.028428  0.115023  0.054642)
 28:   1179.34   0.003697   18.69  0.000978  ( 0.019069 -0.011722  0.021848)
 29:   1237.13   0.069633  351.90  0.017565  (-0.123497 -0.017306 -0.044874)
 30:   1276.71   0.051266  259.08  0.012531  ( 0.051774  0.059910  0.079127)
 31:   1741.46   0.094056  475.32  0.016854  (-0.012692  0.106762  0.072769)
 32:   3592.49   0.047114  238.09  0.004093  (-0.006895  0.055451  0.031149)

* The epsilon (eps) is given for a Dirac delta lineshape.
** The dipole moment derivative (T) already includes vibrational overlap.

The first frequency considered to be a vibration is 6
The total number of vibrations considered is 27


--------------------------
THERMOCHEMISTRY AT 298.15K
--------------------------

Temperature         ...   298.15 K
Pressure            ...     1.00 atm
Total Mass          ...   164.03 AMU
Quasi RRHO          ...     True
Cut-Off Frequency   ...     1.00 cm^-1

Throughout the following assumptions are being made:
  (1) The electronic state is orbitally nondegenerate
  (2) There are no thermally accessible electronically excited states
  (3) Hindered rotations indicated by low frequency modes are not
      treated as such but are treated as vibrations and this may
      cause some error
  (4) All equations used are the standard statistical mechanics
      equations for an ideal gas
  (5) All vibrations are strictly harmonic

freq.      48.70  E(vib)   ...       0.53 
freq.      70.32  E(vib)   ...       0.50 
freq.     141.70  E(vib)   ...       0.41 
freq.     201.18  E(vib)   ...       0.35 
freq.     239.20  E(vib)   ...       0.31 
freq.     270.95  E(vib)   ...       0.29 
freq.     336.88  E(vib)   ...       0.24 
freq.     346.36  E(vib)   ...       0.23 
freq.     368.98  E(vib)   ...       0.21 
freq.     478.38  E(vib)   ...       0.15 
freq.     511.23  E(vib)   ...       0.14 
freq.     532.05  E(vib)   ...       0.13 
freq.     571.42  E(vib)   ...       0.11 
freq.     594.18  E(vib)   ...       0.10 
freq.     669.83  E(vib)   ...       0.08 
freq.     735.59  E(vib)   ...       0.06 
freq.     747.48  E(vib)   ...       0.06 
freq.     968.10  E(vib)   ...       0.03 
freq.    1075.75  E(vib)   ...       0.02 
freq.    1093.30  E(vib)   ...       0.02 
freq.    1113.09  E(vib)   ...       0.01 
freq.    1126.48  E(vib)   ...       0.01 
freq.    1179.34  E(vib)   ...       0.01 
freq.    1237.13  E(vib)   ...       0.01 
freq.    1276.71  E(vib)   ...       0.01 
freq.    1741.46  E(vib)   ...       0.00 
freq.    3592.49  E(vib)   ...       0.00 

------------
INNER ENERGY
------------

The inner energy is: U= E(el) + E(ZPE) + E(vib) + E(rot) + E(trans)
    E(el)   - is the total energy from the electronic structure calculation
              = E(kin-el) + E(nuc-el) + E(el-el) + E(nuc-nuc)
    E(ZPE)  - the the zero temperature vibrational energy from the frequency calculation
    E(vib)  - the the finite temperature correction to E(ZPE) due to population
              of excited vibrational states
    E(rot)  - is the rotational thermal energy
    E(trans)- is the translational thermal energy

Summary of contributions to the inner energy U:
Electronic energy                ...   -764.19586550 Eh
Zero point energy                ...      0.04845269 Eh      30.40 kcal/mol
Thermal vibrational correction   ...      0.00639406 Eh       4.01 kcal/mol
Thermal rotational correction    ...      0.00141627 Eh       0.89 kcal/mol
Thermal translational correction ...      0.00141627 Eh       0.89 kcal/mol
-----------------------------------------------------------------------
Total thermal energy                   -764.13818621 Eh


Summary of corrections to the electronic energy:
(perhaps to be used in another calculation)
Total thermal correction                  0.00922660 Eh       5.79 kcal/mol
Non-thermal (ZPE) correction              0.04845269 Eh      30.40 kcal/mol
-----------------------------------------------------------------------
Total correction                          0.05767929 Eh      36.19 kcal/mol


--------
ENTHALPY
--------

The enthalpy is H = U + kB*T
                kB is Boltzmann's constant
Total thermal energy              ...   -764.13818621 Eh 
Thermal Enthalpy correction       ...      0.00094421 Eh       0.59 kcal/mol
-----------------------------------------------------------------------
Total Enthalpy                    ...   -764.13724200 Eh


Note: Only C1 symmetry has been detected, increase convergence thresholds 
      if your molecule has a higher symmetry. Symmetry factor of 1.0 is   
      used for the rotational entropy correction. 
 

Note: Rotational entropy computed according to Herzberg 
Infrared and Raman Spectra, Chapter V,1, Van Nostrand Reinhold, 1945 
Point Group:  C1, Symmetry Number:   1  
Rotational constants in cm-1:     0.062271     0.038172     0.036316 

Vibrational entropy computed according to the QRRHO of S. Grimme
Chem.Eur.J. 2012 18 9955 using a reference frequency of 100.0 cm-1


-------
ENTROPY
-------

The entropy contributions are T*S = T*(S(el)+S(vib)+S(rot)+S(trans))
     S(el)   - electronic entropy
     S(vib)  - vibrational entropy
     S(rot)  - rotational entropy
     S(trans)- translational entropy
The entropies will be listed as multiplied by the temperature to get
units of energy

Electronic entropy                ...      0.00000000 Eh      0.00 kcal/mol
Vibrational entropy               ...      0.01093704 Eh      6.86 kcal/mol
Rotational entropy                ...      0.01392835 Eh      8.74 kcal/mol
Translational entropy             ...      0.01957212 Eh     12.28 kcal/mol
-----------------------------------------------------------------------
Final entropy term                ...      0.04443751 Eh     27.88 kcal/mol

In case the symmetry of your molecule has not been determined correctly
or in case you have a reason to use a different symmetry number we print 
out the resulting rotational entropy values for sn=1,12:

 non-linear molecules -----------------------------------
|  sn= 1 | S(rot)=       0.01392835 Eh      8.74 kcal/mol|
|  sn= 2 | S(rot)=       0.01327389 Eh      8.33 kcal/mol|
|  sn= 3 | S(rot)=       0.01289106 Eh      8.09 kcal/mol|
|  sn= 4 | S(rot)=       0.01261944 Eh      7.92 kcal/mol|
|  sn= 5 | S(rot)=       0.01240875 Eh      7.79 kcal/mol|
|  sn= 6 | S(rot)=       0.01223660 Eh      7.68 kcal/mol|
|  sn= 7 | S(rot)=       0.01209106 Eh      7.59 kcal/mol|
|  sn= 8 | S(rot)=       0.01196498 Eh      7.51 kcal/mol|
|  sn= 9 | S(rot)=       0.01185377 Eh      7.44 kcal/mol|
|  sn=10 | S(rot)=       0.01175429 Eh      7.38 kcal/mol|
|  sn=11 | S(rot)=       0.01166430 Eh      7.32 kcal/mol|
|  sn=12 | S(rot)=       0.01158215 Eh      7.27 kcal/mol|
 linear molecules ---------------------------------------
|  Dinfh | S(rot)=       0.00845623 Eh      5.31 kcal/mol|
|  Cinfv | S(rot)=       0.00911068 Eh      5.72 kcal/mol|
 --------------------------------------------------------


-------------------
GIBBS FREE ENERGY
-------------------

The Gibbs free energy is G = H - T*S

Total enthalpy                    ...   -764.13724200 Eh 
Total entropy correction          ...     -0.04443751 Eh    -27.88 kcal/mol
-----------------------------------------------------------------------
Final Gibbs free energy         ...   -764.18167951 Eh

For completeness - the Gibbs free energy minus the electronic energy
G-E(el)                           ...      0.01418599 Eh      8.90 kcal/mol


Maximum memory used throughout the entire PROP-calculation: 62.5 MB

--------------------------------
SUGGESTED CITATIONS FOR THIS RUN
--------------------------------

Below you find a list of papers that are relevant to this ORCA run
We neither can nor want to force you to cite these papers, but we appreciate if you do
You receive ORCA, which is the product of decades of hard work by many enthusiastic individuals, for free
The only thing we kindly ask in return is that you cite our papers,
We deeply appreciate it, if you show your appreciation for ORCA by not just citing the generic ORCA reference.

Please note that relegating all ORCA citations to the supporting information does *not* help us.
SI sections are not indexed - citations you put there will not count into any citation statistics
But we need these citations in order to attract the funding resources that allow us to do what we are doing

Therefore, if you are a happy ORCA user, please consider citing a few of the papers listed below in the main body of your paper

In addition to the list printed below, the program has created the file 1-2-3-4-5-fluoropropanoic_acid.bibtex that contains the list in bibtex format
You can import this file easily into all common literature databanks and citation aid programs


List of essential papers. We consider these as the minimum necessary citations

  1. Neese, F.
     Software update: the ORCA program system, version 6.0
     WIRES Comput. Molec. Sci. 2025 15(1), e70019
     doi.org/10.1002/wcms.7019

List of papers to cite with high priority. The work reported in these papers was absolutely
necessary for this run to complete.
Our perspective: the developers of density functionals and basis sets usually get cited in chemistry papers
Good! But without the algorithms to do something with them, the functionals or basis sets would not do anything.
Hence, in our opinion, the algorithm design and method developments papers are equally worthy of getting cited

  1. Neese, F.
     An improvement of the resolution of the identity approximation for the formation of the Coulomb matrix
     J. Comp. Chem. 2003 24(14), 1740-1747
     doi.org/10.1002/jcc.10318
  2. Bykov, D.; Petrenko, T.; Izsak, R.; Kossmann, S.; Becker, U.; Valeev, E.; Neese, F.
     Efficient implementation of the analytic second derivatives of Hartree-Fock and hybrid DFT energies: a detailed analysis of different approximations
     Molec. Phys. 2015 113 , 1961-1977
     doi.org/10.1080/00268976.2015.1025114
  3. Caldeweyher, E.; Bannwarth, C.; Grimme, S.
     Extension of the D3 dispersion coefficient model
     J. Chem. Phys. 2017 147 , 034112
     doi.org/10.1063/1.4993215
  4. Caldeweyher, E.; Ehlert, S.; Hansen, A.; Neugebauer, H.; Spicher, S.; Bannwarth, C.; Grimme, S.
     A generally applicable atomic-charge dependent London dispersion correction
     J. Chem. Phys. 2019 150 , 154122
     doi.org/10.1063/1.5090222
  5. Garcia-Rates, M.; Neese, F.
     Efficient implementation of the analytical second derivatives of hartree-fock and hybrid DFT energies within the framework of the conductor-like polarizable continuum model
     J. Comput. Chem. 2019 40 , 1816-1828
     doi.org/10.1002/jcc.25833
  6. Caldeweyher, E.; Mewes, J.; Ehlert, S.; Grimme, S.
     Extension and evaluation of the D4 London-dispersion model for periodic systems
     Phys. Chem. Chem. Phys. 2020 22(16), 8499-8512
     doi.org/10.1039/D0CP00502A
  7. Garcia-Rates, M.; Neese, F.
     Effect of the Solute Cavity on the Solvation Energy and its Derivatives within the Framework of the Gaussian Charge Scheme
     J. Comput. Chem. 2020 41 , 922-939
     doi.org/10.1002/jcc.26139
  8. Neese, F.
     The SHARK Integral Generation and Digestion System
     J. Comp. Chem. 2022 44(3), 381
     doi.org/10.1002/jcc.26942
  9. Wittmann, L.; Gordiy, I.; Friede, M.; Helmich-Paris, B.; Grimme, S.; Hansen, A.; Bursch, M.
     Extension of the D3 and D4 London Dispersion Corrections to the full Actinides Series
     Phys. Chem. Chem. Phys. 2024 26(32), 21379-21394
     doi.org/10.1039/D4CP01514B

List of suggested additional citations. These are papers that are important in the 'surrounding' of 
of this run, or papers that preceded the highly important papers. If you like your results we are grateful for a citation.

  1. Neese, F.
     The ORCA program system
     WIRES Comput. Molec. Sci. 2012 2(1), 73-78
     doi.org/10.1002/wcms.81
  2. Neese, F.
     Software update: the ORCA program system, version 4.0
     WIRES Comput. Molec. Sci. 2018 8(1), 1-6
     doi.org/10.1002/wcms.1327
  3. Neese, F.; Wennmohs, F.; Becker, U.; Riplinger, C.
     The ORCA quantum chemistry program package
     J. Chem. Phys. 2020 152(22), 224108
     doi.org/10.1063/5.0004608
  4. Neese, F.
     Software update: The ORCA program system—Version 5.0
     WIRES Comput. Molec. Sci. 2022 12(1), e1606
     doi.org/10.1002/wcms.1606

List of optional additional citations

  1. Neese, F.
     Approximate second-order SCF convergence for spin unrestricted wavefunctions
     Chem. Phys. Lett. 2000 325(1-3), 93-98
     doi.org/10.1016/s0009-2614(00)00662-x

Timings for individual modules:

Sum of individual times          ...     1793.369 sec (=  29.889 min)
Startup calculation              ...       30.314 sec (=   0.505 min)   1.7 %
SCF iterations                   ...      886.314 sec (=  14.772 min)  49.4 %
Property integrals               ...      184.739 sec (=   3.079 min)  10.3 %
SCF Response                     ...      112.673 sec (=   1.878 min)   6.3 %
Property calculations            ...       99.950 sec (=   1.666 min)   5.6 %
SCF Gradient evaluation          ...      479.266 sec (=   7.988 min)  26.7 %
Geometry relaxation              ...        0.114 sec (=   0.002 min)   0.0 %
                             ****ORCA TERMINATED NORMALLY****
TOTAL RUN TIME: 0 days 0 hours 29 minutes 57 seconds 467 msec
