
                                 *****************
                                 * O   R   C   A *
                                 *****************

                                            #,                                       
                                            ###                                      
                                            ####                                     
                                            #####                                    
                                            ######                                   
                                           ########,                                 
                                     ,,################,,,,,                         
                               ,,#################################,,                 
                          ,,##########################################,,             
                       ,#########################################, ''#####,          
                    ,#############################################,,   '####,        
                  ,##################################################,,,,####,       
                ,###########''''           ''''###############################       
              ,#####''   ,,,,##########,,,,          '''####'''          '####       
            ,##' ,,,,###########################,,,                        '##       
           ' ,,###''''                  '''############,,,                           
         ,,##''                                '''############,,,,        ,,,,,,###''
      ,#''                                            '''#######################'''  
     '                                                          ''''####''''         
             ,#######,   #######,   ,#######,      ##                                
            ,#'     '#,  ##    ##  ,#'     '#,    #''#        ,####,    ,#,          
            ##       ##  ##   ,#'  ##            #'  '#       #'       ,# #          
            ##       ##  #######   ##           ,######,      #####,      #          
            '#,     ,#'  ##    ##  '#,     ,#' ,#      #,     #,   #      #          
             '#######'   ##     ##  '#######'  #'      '#     '####' #    #          



                #########################################################
                #                        -***-                          #
                #          Department of theory and spectroscopy        #
                #                                                       #
                #                      Frank Neese                      #
                #                                                       #
                #     Directorship, Architecture, Infrastructure        #
                #                    SHARK, DRIVERS                     #
                #        Core code/Algorithms in most modules           #
                #                                                       #
                #        Max Planck Institute fuer Kohlenforschung      #
                #                Kaiser Wilhelm Platz 1                 #
                #                 D-45470 Muelheim/Ruhr                 #
                #                      Germany                          #
                #                                                       #
                #                  All rights reserved                  #
                #                        -***-                          #
                #########################################################


                         Program Version 6.1.0  -  RELEASE   -
                                (GIT: $679e74b$)
                          ($2025-06-10 18:02:51 +0200$)


 With contributions from (in alphabetic order):
[Max-Planck-Institut fuer Kohlenforschung]                               
  Daniel Aravena         : Magnetic Suceptibility                        
  Michael Atanasov       : Ab Initio Ligand Field Theory (pilot matlab implementation)
  Alexander A. Auer      : GIAO ZORA, VPT2 properties, NMR spectrum      
  Ute Becker             : All parallelization in ORCA, NUMFREQ, NUMCALC 
  Giovanni Bistoni       : ED, misc. LED, open-shell LED, HFLD           
  Dmytro Bykov           : pre 5.0 version of the SCF Hessian            
  Marcos Casanova-Páez   : Triplet and SCS-CIS(D). UHF-(DLPNO)-IP/EA/STEOM-CCSD. UHF-CVS-IP/STEOM-CCSD   
  Vijay G. Chilkuri      : MRCI spin determinant printing, contributions to CSF-ICE 
  Pauline Colinet        : FMM embedding                                 
  Dipayan Datta          : RHF DLPNO-CCSD density                        
  Achintya Kumar Dutta   : EOM-CC, STEOM-CC                              
  Nicolas Foglia         : Exact transition moments, OPA infrastructure, MCD improvements    
  Dmitry Ganyushin       : Spin-Orbit,Spin-Spin,Magnetic field MRCI      
  Miquel Garcia-Rates    : C-PCM and meta-GGA Hessian, CCSD/C-PCM, Gaussian charge scheme 
  Tiago L. C. Gouveia    : GS-ROHF, GS-ROCIS                             
  Yang Guo               : DLPNO-NEVPT2, F12-NEVPT2, CIM, IAO-localization        
  Andreas Hansen         : Spin unrestricted coupled pair/coupled cluster methods 
  Ingolf Harden          : AUTO-CI MPn and infrastructure                
  Benjamin Helmich-Paris : MC-RPA, TRAH-(SCF,CASSCF), AVAS, COSX integrals, SCF dyn. polar., MC-PDFT, srDFT 
  Lee Huntington         : MR-EOM, pCC                                   
  Robert Izsak           : Overlap fitted RIJCOSX, COSX-SCS-MP3, EOM     
  Riya Kayal             : Wick's Theorem for AUTO-CI, AUTO-CI UHF-CCSDT 
  Emily Kempfer          : AUTO-CI RHF CISDT and CCSDT, approximate NEVPT4
  Christian Kollmar      : KDIIS, OOCD, Brueckner-CCSD(T), CCSD density, CASPT2, CASPT2-K, improved NEVPT2 
  Axel Koslowski         : Symmetry handling                             
  Simone Kossmann        : meta-GGA functionals, TD-DFT gradient, OOMP2, (MP2 Hessian; deprecated post 5.0) 
  Lucas Lang             : DCDCAS, Hyperfine gauge corrections, ICE-SOC+SSC
  Marvin Lechner         : AUTO-CI (C++ implementation), FIC-MRCC        
  Spencer Leger          : CASSCF response                               
  Dagmar Lenk            : GEPOL surface, SMD, ORCA-2-JSON               
  Dimitrios Liakos       : Extrapolation schemes; Compound Job, Property file
  Dimitrios Manganas     : Further ROCIS development; embedding schemes. LFT, Crystal Embedding 
  Dimitrios Pantazis     : SARC Basis sets                               
  Anastasios Papadopoulos: AUTO-CI, single reference methods and gradients 
  Taras Petrenko         : pre 6.0 DFT Hessian and TD-DFT gradient,  ECA, NRVS 
  Petra Pikulova         : Analytic Raman intensities                    
  Peter Pinski           : DLPNO-MP2, DLPNO-MP2 Gradient                 
  Shashank Vittal Rao    : ES-AILFT, MagRelax                            
  Christoph Reimann      : Effective Core Potentials                     
  Marius Retegan         : Local ZFS, SOC                                
  Christoph Riplinger    : Optimizer, TS searches, QM/MM, DLPNO-CCSD(T), (RO)-DLPNO pert. Triples 
  Michael Roemelt        : Original ROCIS implementation, recursive CI coupling coefficients
  Masaaki Saitow         : Open-shell DLPNO-CCSD energy and density      
  Barbara Sandhoefer     : DKH picture change effects                    
  Yorick L. A. Schmerwitz: GMF and freeze-and-release deltaSCF, NEB S-IDPP initial path                    
  Kantharuban Sivalingam : CASSCF convergence/infrastructure, NEVPT2, NEVPT3, NEVPT4(SD), FIC-MRCI and CEPA variants
  Bernardo de Souza      : ESD, SOC TD-DFT                               
  Georgi L. Stoychev     : AutoAux, RI-MP2 NMR, DLPNO-MP2 response, X2C  
  Van Anh Tran           : RI-MP2 g-tensors                              
  Willem Van den Heuvel  : Paramagnetic NMR                              
  Zikuan Wang            : NOTCH, Electric field optimization            
  Frank Wennmohs         : Technical directorship and infrastructure     
  Hang Xu                : AUTO-CI-Response properties                   
                                                                         
[FACCTs GmbH]                                                            
  Markus Bursch, Nicolas Foglia, Miquel Garcia-Rates, Ingolf Harden, Hagen Neugebauer, Anastasios Papadopoulos, 
  Christoph Riplinger, Bernardo de Souza, Georgi L. Stoychev                                                    
                                                                 
  APM, various basis sets, CI-OPT, improved COSX, DLPNO-Multilevel,           
  DOCKER, DRACO, updates on ESD, Fragmentator, GOAT, IRC, LR-CPCM, L-BFGS, MBIS, meta-GGA TD-DFT gradient, ML-optimized integration grids, 
  MM, NACMEs, nearIR, NEB, NEB-TS, NL-DFT gradient (VV10), 2- and 3-layer-ONIOM, interface openCOSMO-RS, QMMM,   
  Crystal-QMMM, RESP, rigid body optimization, SF, symmetry and pop. for TD-DFT, various functionals, SOLVATOR                                   
                                                                         
[Other institutions]                                                     
  V. Asgeirsson          : NEB                                           
  Christoph Bannwarth    : sTDA-DFT, sTD-DFT, PBEh-3c, B97-3c, D3        
  Giovanni Bistoni       : ETS/NOCV, ADLD/ADEX, COVALED                  
  Martin Brehm           : Molecular dynamics                            
  Ronald Cardenas        : ETS/NOCV                                      
  Martina Colucci        : COVALED                                       
  Sebastian Ehlert       : rSCAN, r2SCAN, r2SCAN-3c, D4, dhf basis sets  
  Marvin Friede          : D4 for Fr, Ra, Ac-Lr                          
  Lars Goerigk           : TD-DFT with DH, B97 family of functionals     
  Stefan Grimme          : VdW corrections, initial TS optimization, DFT functionals, gCP, sTDA/sTD-DF 
  Waldemar Hujo          : DFT-NL                                        
  H. Jonsson             : NEB                                           
  Holger Kruse           : gCP                                           
  Marcel Mueller         : wB97X-3c, vDZP basis set                      
  Hagen Neugebauer       : wr2SCAN, Native XTB                           
  Gianluca Regni         : ADLD/ADEX                                     
  Tobias Risthaus        : pre 6.0 range-separated hybrid DFT and stability analysis
  Lukas Wittmann         : regularized MP2, r2SCAN double-hybrids, wr2SCAN        
                                                                         
We gratefully acknowledge several colleagues who have allowed us to      
interface, adapt or use parts of their codes:                            
  Ed Valeev, F. Pavosevic, A. Kumar             : LibInt (2-el integral package), F12 methods 
  Garnet Chan, S. Sharma, J. Yang, R. Olivares  : DMRG                   
  Ulf Ekstrom                                   : XCFun DFT Library      
  Mihaly Kallay                                 : mrcc  (arbitrary order and MRCC methods)
  Frank Weinhold                                : gennbo (NPA and NBO analysis)           
  Simon Mueller                                 : openCOSMO-RS                            
  Christopher J. Cramer and Donald G. Truhlar   : smd solvation model                     
  S Lehtola, MJT Oliveira, MAL Marques          : LibXC Library                           
  Liviu Ungur et al                             : ANISO software                          


 Your calculation uses the libint2 library for the computation of 2-el integrals
 For citations please refer to: http://libint.valeyev.net

 Your ORCA version has been built with support for libXC version: 7.0.0
 For citations please refer to: https://libxc.gitlab.io

 This ORCA versions uses:
   CBLAS   interface :  Fast vector & matrix operations
   LAPACKE interface :  Fast linear algebra routines
   SCALAPACK package :  Parallel linear algebra routines
   Shared memory     :  Shared parallel matrices
   BLAS/LAPACK       :  OpenBLAS 0.3.29  USE64BITINT DYNAMIC_ARCH NO_AFFINITY Zen SINGLE_THREADED
        Core in use  :  Zen
   Copyright (c) 2011-2014, The OpenBLAS Project


  ***********************************
  * Starting time: Wed Nov 26 23:08:26 2025
  * Host name:     twstudio
  * Process ID:    96878
  * Working dir.:  /mnt/sda3/data1/Studium-PC/PFAS-Breaker/C-F-Bonds_Gibbs/IonicFluorination
  ***********************************

Your calculation utilizes the atom-pairwise dispersion correction
based on EEQ partial charges (D4)


Your calculation utilizes the SMD solvation module
Please cite in your paper:
Marenich, A. V.; Cramer, C. J.; Truhlar, D. G. J. Phys. Chem. B 2009, 113, 6378 

Warning: RI is on but no J-basis has been assigned. Assigning Def2/J (nothing to worry about!)
================================================================================

----- Orbital basis set information -----
Your calculation utilizes the basis: def2-TZVPP
   F. Weigend and R. Ahlrichs, Phys. Chem. Chem. Phys. 7, 3297 (2005).

----- AuxJ basis set information -----
Your calculation utilizes the auxiliary basis: def2/J
   H-Rn: F. Weigend, Phys. Chem. Chem. Phys. 8, 1057 (2006).
   Fr-Lr: K. Eichkorn, F. Weigend, O. Treutler, R. Ahlrichs; Theor. Chem. Acc. 97, 119 (1997).

================================================================================
                                        WARNINGS
                       Please study these warnings very carefully!
================================================================================


WARNING: Geometry Optimization
  ===> : Switching off AutoStart
         For restart on a previous wavefunction, please use MOREAD

================================================================================
                                       INPUT FILE
================================================================================
NAME = 3_3_difluoropropanoic_acid_defluorinated.inp
|  1> !PBE D4 def2-TZVPP OPT FREQ SMD(WATER)
|  2> 
|  3> %scf
|  4> MaxCore 28672
|  5> end
|  6> 
|  7> * xyz 1 1
|  8> C     -6.28313    0.68037    0.39161
|  9> C     -5.13141    1.63411    0.02177
| 10> O     -2.94661    1.67241   -0.88277
| 11> H     -5.46615    2.31046   -0.76882
| 12> O     -3.75619   -0.31734   -0.37242
| 13> C     -3.89689    0.88644   -0.44602
| 14> H     -3.26449    2.59043   -0.83364
| 15> H     -4.87183    2.24736    0.88831
| 16> F     -7.32245    1.38786    0.87186
| 17> H     -5.96356   -0.01741    1.17074
| 18> **                         ****END OF INPUT****
================================================================================

                       *****************************
                       * Geometry Optimization Run *
                       *****************************

Geometry optimization settings:
Update method            Update   .... BFGS
Choice of coordinates    CoordSys .... (2022) Redundant Internals
Initial Hessian          InHess   .... Almloef's Model
Max. no of cycles        MaxIter  .... 50

Convergence Tolerances:
Energy Change            TolE     ....  5.0000e-06 Eh
Max. Gradient            TolMAXG  ....  3.0000e-04 Eh/bohr
RMS Gradient             TolRMSG  ....  1.0000e-04 Eh/bohr
Max. Displacement        TolMAXD  ....  4.0000e-03 bohr
RMS Displacement         TolRMSD  ....  2.0000e-03 bohr
Strict Convergence                .... False

------------------------------------------------------------------------------
                        ORCA OPTIMIZATION COORDINATE SETUP
------------------------------------------------------------------------------

The optimization will be done in redundant internal coordinates (2022)
Making redundant internal coordinates   ...  (2022 redundants) done
Evaluating the initial hessian          ...  (Almloef) done
Evaluating the coordinates              ...  done
Calculating the B-matrix                .... done
Calculating the G-matrix                .... done
The number of degrees of freedom        ....   34

    -----------------------------------------------------------------
                    Redundant Internal Coordinates


    -----------------------------------------------------------------
         Definition                    Initial Value    Approx d2E/dq
    -----------------------------------------------------------------
      1. B(C   1,C   0)                  1.5404         0.359559   
      2. B(H   3,C   1)                  1.0929         0.356223   
      3. B(C   5,C   1)                  1.5172         0.391569   
      4. B(C   5,O   4)                  1.2142         1.067435   
      5. B(C   5,O   2)                  1.3083         0.755604   
      6. B(H   6,O   2)                  0.9727         0.496183   
      7. B(H   7,C   1)                  1.0929         0.356333   
      8. B(F   8,C   0)                  1.3459         0.611466   
      9. B(H   9,C   0)                  1.0936         0.355307   
     10. A(C   1,C   0,F   8)          109.7293         0.388891   
     11. A(C   1,C   0,H   9)          110.3409         0.321584   
     12. A(F   8,C   0,H   9)          107.8685         0.347675   
     13. A(H   3,C   1,C   5)          109.3380         0.326256   
     14. A(C   0,C   1,H   3)          109.1370         0.321720   
     15. A(C   0,C   1,H   7)          109.5511         0.321736   
     16. A(C   0,C   1,C   5)          112.1654         0.363899   
     17. A(H   3,C   1,H   7)          107.4006         0.289867   
     18. A(C   5,C   1,H   7)          109.1313         0.326272   
     19. A(C   5,O   2,H   6)          108.2251         0.379890   
     20. A(O   2,C   5,O   4)          122.1193         0.490396   
     21. A(C   1,C   5,O   4)          124.3443         0.437775   
     22. A(C   1,C   5,O   2)          113.4475         0.411540   
     23. D(H   7,C   1,C   0,F   8)     55.1039         0.010000   
     24. D(C   5,C   1,C   0,H   9)     57.7258         0.010000   
     25. D(H   3,C   1,C   0,F   8)    -62.2278         0.010000   
     26. D(C   5,C   1,C   0,F   8)    176.4503         0.010000   
     27. D(H   3,C   1,C   0,H   9)    179.0477         0.010000   
     28. D(O   2,C   5,C   1,H   3)     52.8680         0.011402   
     29. D(O   4,C   5,O   2,H   6)   -178.4549         0.043433   
     30. D(O   2,C   5,C   1,C   0)    174.0744         0.011402   
     31. D(C   1,C   5,O   2,H   6)     -1.7443         0.043433   
     32. D(O   4,C   5,C   1,H   3)   -130.5063         0.011402   
     33. D(O   4,C   5,C   1,C   0)     -9.2999         0.011402   
     34. D(O   2,C   5,C   1,H   7)    -64.3384         0.011402   
    -----------------------------------------------------------------

Number of atoms                         .... 10
Number of degrees of freedom            .... 34


         *************************************************************
         *                GEOMETRY OPTIMIZATION CYCLE   1            *
         *************************************************************
---------------------------------
CARTESIAN COORDINATES (ANGSTROEM)
---------------------------------
  C     -6.283130    0.680370    0.391610
  C     -5.131410    1.634110    0.021770
  O     -2.946610    1.672410   -0.882770
  H     -5.466150    2.310460   -0.768820
  O     -3.756190   -0.317340   -0.372420
  C     -3.896890    0.886440   -0.446020
  H     -3.264490    2.590430   -0.833640
  H     -4.871830    2.247360    0.888310
  F     -7.322450    1.387860    0.871860
  H     -5.963560   -0.017410    1.170740

----------------------------
CARTESIAN COORDINATES (A.U.)
----------------------------
  NO LB      ZA    FRAG     MASS         X           Y           Z
   0 C     6.0000    0    12.011  -11.873395    1.285713    0.740036
   1 C     6.0000    0    12.011   -9.696960    3.088020    0.041139
   2 O     8.0000    0    15.999   -5.568286    3.160397   -1.668194
   3 H     1.0000    0     1.008  -10.329527    4.366137   -1.452859
   4 O     8.0000    0    15.999   -7.098170   -0.599686   -0.703772
   5 C     6.0000    0    12.011   -7.364055    1.675129   -0.842856
   6 H     1.0000    0     1.008   -6.168992    4.895203   -1.575351
   7 H     1.0000    0     1.008   -9.206424    4.246895    1.678663
   8 F     9.0000    0    18.998  -13.837425    2.622675    1.647577
   9 H     1.0000    0     1.008  -11.269495   -0.032900    2.212378

--------------------------------
INTERNAL COORDINATES (ANGSTROEM)
--------------------------------
 C      0   0   0     0.000000000000     0.00000000     0.00000000
 C      1   0   0     1.540409222122     0.00000000     0.00000000
 O      2   1   0     2.364954659523   142.42659975     0.00000000
 H      2   1   3     1.092946813985   109.13702145   116.39289172
 O      3   2   1     2.207936131640    63.78517193   349.27231880
 C      5   3   2     1.214207452786    30.12142212     2.15728699
 H      3   2   1     0.972739518936    72.18596067   169.23910860
 H      2   1   3     1.092862713473   109.55107165   233.72451625
 F      1   2   3     1.345870805464   109.72925901   181.37934570
 H      1   2   3     1.093647781601   110.34093060    62.65480588

---------------------------
INTERNAL COORDINATES (A.U.)
---------------------------
 C      0   0   0     0.000000000000     0.00000000     0.00000000
 C      1   0   0     2.910951563978     0.00000000     0.00000000
 O      2   1   0     4.469116625640   142.42659975     0.00000000
 H      2   1   3     2.065370157373   109.13702145   116.39289172
 O      3   2   1     4.172394609988    63.78517193   349.27231880
 C      5   3   2     2.294519555531    30.12142212     2.15728699
 H      3   2   1     1.838211290431    72.18596067   169.23910860
 H      2   1   3     2.065211230438   109.55107165   233.72451625
 F      1   2   3     2.543327233967   109.72925901   181.37934570
 H      1   2   3     2.066694794196   110.34093060    62.65480588

---------------------
BASIS SET INFORMATION
---------------------
There are 4 groups of distinct atoms

 Group   1 Type C   : 11s6p2d1f contracted to 5s3p2d1f pattern {62111/411/11/1}
 Group   2 Type O   : 11s6p2d1f contracted to 5s3p2d1f pattern {62111/411/11/1}
 Group   3 Type H   : 5s2p1d contracted to 3s2p1d pattern {311/11/1}
 Group   4 Type F   : 11s6p2d1f contracted to 5s3p2d1f pattern {62111/411/11/1}

Atom   0C    basis set group =>   1
Atom   1C    basis set group =>   1
Atom   2O    basis set group =>   2
Atom   3H    basis set group =>   3
Atom   4O    basis set group =>   2
Atom   5C    basis set group =>   1
Atom   6H    basis set group =>   3
Atom   7H    basis set group =>   3
Atom   8F    basis set group =>   4
Atom   9H    basis set group =>   3
---------------------------------
AUXILIARY/J BASIS SET INFORMATION
---------------------------------
There are 4 groups of distinct atoms

 Group   1 Type C   : 12s5p4d2f1g contracted to 6s4p3d1f1g pattern {711111/2111/211/2/1}
 Group   2 Type O   : 12s5p4d2f1g contracted to 6s4p3d1f1g pattern {711111/2111/211/2/1}
 Group   3 Type H   : 5s2p1d contracted to 3s1p1d pattern {311/2/1}
 Group   4 Type F   : 12s5p4d2f1g contracted to 6s4p3d1f1g pattern {711111/2111/211/2/1}

Atom   0C    basis set group =>   1
Atom   1C    basis set group =>   1
Atom   2O    basis set group =>   2
Atom   3H    basis set group =>   3
Atom   4O    basis set group =>   2
Atom   5C    basis set group =>   1
Atom   6H    basis set group =>   3
Atom   7H    basis set group =>   3
Atom   8F    basis set group =>   4
Atom   9H    basis set group =>   3
------------------------------------------------------------------------------
                             ORCA STARTUP CALCULATIONS
                           -- RI-GTO INTEGRALS CHOSEN --
------------------------------------------------------------------------------
------------------------------------------------------------------------------
                   ___                                                        
                  /   \      - P O W E R E D   B Y -                         
                 /     \                                                     
                 |  |  |   _    _      __       _____    __    __             
                 |  |  |  | |  | |    /  \     |  _  \  |  |  /  |          
                  \  \/   | |  | |   /    \    | | | |  |  | /  /          
                 / \  \   | |__| |  /  /\  \   | |_| |  |  |/  /          
                |  |  |   |  __  | /  /__\  \  |    /   |      \           
                |  |  |   | |  | | |   __   |  |    \   |  |\   \          
                \     /   | |  | | |  |  |  |  | |\  \  |  | \   \       
                 \___/    |_|  |_| |__|  |__|  |_| \__\ |__|  \__/        
                                                                              
                      - O R C A' S   B I G   F R I E N D -                    
                                      &                                       
                       - I N T E G R A L  F E E D E R -                       
                                                                              
 v1 FN, 2020, v2 2021, v3 2022-2024                                           
------------------------------------------------------------------------------


----------------------
SHARK INTEGRAL PACKAGE
----------------------

Number of atoms                             ...     10
Number of basis functions                   ...    242
Number of shells                            ...     90
Maximum angular momentum                    ...      3
Integral batch strategy                     ... SHARK/LIBINT Hybrid
RI-J (if used) integral strategy            ... SPLIT-RIJ (Revised 2003 algorithm where possible)
Printlevel                                  ...      1
Contraction scheme used                     ... SEGMENTED contraction
Prescreening option                         ... SCHWARTZ
   Thresh                                   ... 2.500e-11
   Tcut                                     ... 2.500e-12
   Tpresel                                  ... 2.500e-12 
Coulomb Range Separation                    ... NOT USED
Exchange Range Separation                   ... NOT USED
Multipole approximations                    ... NOT USED
Finite Nucleus Model                        ... NOT USED
CABS basis                                  ... NOT available
Auxiliary Coulomb fitting basis             ... AVAILABLE
   # of basis functions in Aux-J            ...    338
   # of shells in Aux-J                     ...    110
   Maximum angular momentum in Aux-J        ...      4
Auxiliary J/K fitting basis                 ... NOT available
Auxiliary Correlation fitting basis         ... NOT available
Auxiliary 'external' fitting basis          ... NOT available

Checking pre-screening integrals            ... done (  0.0 sec) Dimension = 90
   => SHARK Basis and OBASIS are compatible. Storing Pre-screening
Shell pair information
Shell pair cut-off parameter TPreSel        ...   2.5e-12
Total number of shell pairs                 ...      4095
Shell pairs after pre-screening             ...      3784
Total number of primitive shell pairs       ...     11772
Primitive shell pairs kept                  ...      8540
          la=0 lb=0:    805 shell pairs
          la=1 lb=0:   1026 shell pairs
          la=1 lb=1:    343 shell pairs
          la=2 lb=0:    608 shell pairs
          la=2 lb=1:    397 shell pairs
          la=2 lb=2:    124 shell pairs
          la=3 lb=0:    226 shell pairs
          la=3 lb=1:    148 shell pairs
          la=3 lb=2:     88 shell pairs
          la=3 lb=3:     19 shell pairs

Checking whether 4 symmetric matrices of dimension 242 fit in memory
:Max Core in MB      =  28672.00
 MB in use           =      8.08
 MB left             =  28663.92
 MB needed           =      0.90
 Data fit in memory  = YES
Calculating RI/J V-Matrix + Cholesky decomp.... done (  0.0 sec)
Calculating Nuclear repulsion               ... done (  0.0 sec) ENN=    227.327790828914 Eh

Diagonalization of the overlap matrix:
Smallest eigenvalue                        ... 2.288e-04
Time for diagonalization                   ...    0.007 sec
Threshold for overlap eigenvalues          ... 1.000e-07
Number of eigenvalues below threshold      ... 0
Time for construction of square roots      ...    0.003 sec
Total time needed                          ...    0.010 sec

-------------------
DFT GRID GENERATION
-------------------

General Integration Accuracy     IntAcc      ... 4.388
Radial Grid Type                 RadialGrid  ... OptM3 with GC (2021)
Angular Grid (max. ang.)         AngularGrid ... 4 (Lebedev-302)
Angular grid pruning method      GridPruning ... 4 (adaptive)
Weight generation scheme         WeightScheme... mBecke (2022)
Basis function cutoff            BFCut       ... 1.0000e-11
Integration weight cutoff        WCut        ... 1.0000e-14
Partially contracted basis set               ... off
Rotationally invariant grid construction     ... off
Angular grids for H and He will be reduced by one unit

Total number of grid points                  ...    49478
Total number of batches                      ...      776
Average number of points per batch           ...       63
Average number of grid points per atom       ...     4948
Grids setup in   0.4 sec
Initializing property integral containers    ... done (  0.0 sec)

SHARK setup successfully completed in   0.5 seconds

Maximum memory used throughout the entire STARTUP-calculation: 30.1 MB
-------------------------------------------------------------------------------
                                 ORCA GUESS
                   Start orbitals & Density for SCF / CASSCF
-------------------------------------------------------------------------------

------------
SCF SETTINGS
------------
Hamiltonian:
 Density Functional     Method          .... DFT(GTOs)
 Exchange Functional    Exchange        .... PBE
   PBE kappa parameter   XKappa         ....  0.804000
   PBE mue parameter    XMuePBE         ....  0.219520
 Correlation Functional Correlation     .... PBE
   PBE beta parameter  CBetaPBE         ....  0.066725
 LDA part of GGA corr.  LDAOpt          .... PW91-LDA
 Gradients option       PostSCFGGA      .... off
   NL short-range parameter             ....  6.400000
 RI-approximation to the Coulomb term is turned on
   Number of AuxJ basis functions       .... 338


General Settings:
 Integral files         IntName         .... 3_3_difluoropropanoic_acid_defluorinated
 Hartree-Fock type      HFTyp           .... RHF
 Total Charge           Charge          ....    1
 Multiplicity           Mult            ....    1
 Number of Electrons    NEL             ....   46
 Basis Dimension        Dim             ....  242
 Nuclear Repulsion      ENuc            ....    227.3277908289 Eh

Convergence Acceleration:
 AO-DIIS                CNVDIIS         .... on
   Start iteration      DIISMaxIt       ....    12
   Startup error        DIISStart       ....  0.200000
   # of expansion vecs  DIISMaxEq       ....     5
   Bias factor          DIISBfac        ....   1.050
   Max. coefficient     DIISMaxC        ....  10.000
 MO-DIIS                CNVKDIIS        .... off
 Trust-Rad. Augm. Hess. CNVTRAH         .... auto
   Auto Start mean grad. ratio tolernc. ....  1.125000
   Auto Start start iteration           ....    50
   Auto Start num. interpolation iter.  ....    10
   Max. Number of Micro iterations      ....    24
   Max. Number of Macro iterations      .... Maxiter - #DIIS iter
   Number of Davidson start vectors     ....     2
   Converg. threshold    (grad. norm)   ....   1.000e-05
   Grad. Scal. Fac. for Micro threshold ....   0.100
   Minimum threshold for Micro iter.    ....   1.000e-02
   NR start threshold (gradient norm)   ....   1.000e-04
   Initial trust radius                 ....   0.400
   Minimum AH scaling param. (alpha)    ....   1.000
   Maximum AH scaling param. (alpha)    .... 1000.000
   Quad. conv. algorithm                .... NR
   White noise on init. David. guess    .... on
   Maximum white noise                  ....   0.010
   Pseudo random numbers                .... off
   Inactive MOs                         .... canonical
   Orbital update algorithm             .... Taylor
   Preconditioner                       .... Diag
   Full preconditioner red. dimension   ....   250
 SOSCF                 CNVSOSCF           .... on
   Start iteration     SOSCFMaxIt         ....   150
   Startup grad/error  SOSCFStart         ....  0.003300
   Hessian update      SOSCFHessUp        .... L-BFGS
   Autom. constraints  SOSCFAutoConstrain .... off
 Level Shifting         CNVShift        .... on
   Level shift para.    LevelShift      ....    0.2500
   Turn off err/grad.   ShiftErr        ....    0.0010
 Zerner damping         CNVZerner       .... off
 Static damping         CNVDamp         .... on
   Fraction old density DampFac         ....    0.7000
   Max. Damping (<1)    DampMax         ....    0.9800
   Min. Damping (>=0)   DampMin         ....    0.0000
   Turn off err/grad.   DampErr         ....    0.1000

SCF Procedure:
 Maximum # iterations   MaxIter         ....   125
 SCF integral mode      SCFMode         .... Direct
   Integral package                     .... SHARK and LIBINT hybrid scheme
 Reset frequency        DirectResetFreq ....    20
 Integral Threshold     Thresh          ....  2.500e-11 Eh
 Primitive CutOff       TCut            ....  2.500e-12 Eh

Convergence Tolerance:
 Convergence Check Mode ConvCheckMode   .... Total+1el-Energy
 Convergence forced     ConvForced      .... 0
 Energy Change          TolE            ....  1.000e-08 Eh
 1-El. energy change                    ....  1.000e-05 Eh
 Orbital Gradient       TolG            ....  1.000e-05
 Orbital Rotation angle TolX            ....  1.000e-05
 DIIS Error             TolErr          ....  5.000e-07

------------------------------
INITIAL GUESS: MODEL POTENTIAL
------------------------------
Loading Hartree-Fock densities                     ... done
Calculating cut-offs                               ... done
Initializing the effective Hamiltonian             ... done
Setting up the integral package (SHARK)            ... done
Starting the Coulomb interaction                   ... done (   0.1 sec)
Making the grid                                    ... done (   0.1 sec)
Mapping shells                                     ... done
Starting the XC term evaluation                    ... done (   0.2 sec)
  promolecular density results
     # of electrons  =     46.997959781
     EX              =    -42.793787581
     EC              =     -1.578105756
     EX+EC           =    -44.371893337
Transforming the Hamiltonian                       ... done (   0.0 sec)
Diagonalizing the Hamiltonian                      ... done (   0.0 sec)
Back transforming the eigenvectors                 ... done (   0.0 sec)
Now organizing SCF variables                       ... done
                      ------------------
                      INITIAL GUESS DONE (   0.4 sec)
                      ------------------
             **** ENERGY FILE WAS UPDATED (3_3_difluoropropanoic_acid_defluorinated.en.tmp) ****
Finished Guess after   0.5 sec
Maximum memory used throughout the entire GUESS-calculation: 19.4 MB

-------------------------------------------------------------------------------------------
                                      ORCA LEAN-SCF
                              memory conserving SCF solver
-------------------------------------------------------------------------------------------

--------------------
CPCM SOLVATION MODEL
--------------------
CPCM parameters:
  Epsilon                                         ...      78.3550
  Refrac                                          ...       1.3328
  Rsolv                                           ...       1.3000
  Surface type                                    ... GAUSSIAN VDW
  Discretization scheme                           ... Constant charge density
    Threshold for H atoms                         ...       5.0000 (charges/Ang^2)
    Threshold for non-H atoms                     ...       5.0000 (charges/Ang^2)
  Epsilon function type                           ...         CPCM
Solvent:                                          ... WATER
SMD-CDS solvent descriptors:
  Soln                                            ...       1.3328
  Soln25                                          ...       1.3323
  Sola                                            ...       0.0000
  Solb                                            ...       0.0000
  Solg                                            ...       0.0000
  Solc                                            ...       0.0000
  Solh                                            ...       0.0000
Radii:
  Scheme                                          ... Element-dependent radii
  Radius for C  used is    3.4960 Bohr (=   1.8500 Ang.)
  Radius for O  used is    2.8724 Bohr (=   1.5200 Ang.)
  Radius for H  used is    2.2677 Bohr (=   1.2000 Ang.)
  Radius for F  used is    3.2692 Bohr (=   1.7300 Ang.)
Calculating surface                               ...        done! (  0.0s)
Cavity surface points                             ...          844
Cavity Volume                                     ...     574.1191
Cavity Surface-area                               ...     395.8263
Calculating surface distance matrix               ...        done! (  0.0s)
Performing Cholesky decomposition & store         ...        done! (  0.0s)
Overall time for CPCM initialization              ...                 0.0s

----------------------------------------D-I-I-S--------------------------------------------
Iteration    Energy (Eh)           Delta-E    RMSDP     MaxDP     DIISErr   Damp  Time(sec)
-------------------------------------------------------------------------------------------
               ***  Starting incremental Fock matrix formation  ***
    1    -366.3124132961962687     0.00e+00  1.92e-03  9.80e-02  2.78e-01  0.700   1.3
Warning: op=0 Small HOMO/LUMO gap (  -0.083) - skipping pre-diagonalization
         Will do a full diagonalization
    2    -366.4100860812928886    -9.77e-02  1.40e-03  8.27e-02  8.41e-02  0.700   1.3
                               ***Turning on AO-DIIS***
    3    -366.4377374450596108    -2.77e-02  5.17e-04  2.27e-02  1.40e-02  0.700   1.3
    4    -366.4542051825565068    -1.65e-02  7.27e-04  2.50e-02  1.73e-02  0.000   1.3
    5    -366.4957614203954108    -4.16e-02  4.05e-04  2.73e-02  1.47e-02  0.000   1.2
    6    -366.4973138142537437    -1.55e-03  1.57e-04  8.74e-03  4.51e-03  0.000   1.2
                              *** Initializing SOSCF ***
---------------------------------------S-O-S-C-F--------------------------------------
Iteration    Energy (Eh)           Delta-E    RMSDP     MaxDP     MaxGrad    Time(sec)
--------------------------------------------------------------------------------------
    7    -366.4976203722914079    -3.07e-04  9.12e-05  4.06e-03  2.56e-03     1.2
               *** Restarting incremental Fock matrix formation ***
    8    -366.4977343572890049    -1.14e-04  1.22e-04  3.48e-03  1.84e-03     1.3
    9    -366.4978078551903309    -7.35e-05  1.60e-04  4.22e-03  1.86e-03     1.2
   10    -366.4978875781328043    -7.97e-05  4.11e-05  1.79e-03  7.22e-04     1.2
   11    -366.4978971885443570    -9.61e-06  3.42e-05  1.02e-03  2.94e-04     1.1
   12    -366.4979015865212659    -4.40e-06  2.21e-05  7.76e-04  1.65e-04     1.2
   13    -366.4979041086535290    -2.52e-06  4.15e-05  1.42e-03  1.27e-04     1.1
   14    -366.4979057638523727    -1.66e-06  2.69e-05  8.16e-04  1.15e-04     1.2
   15    -366.4979071506451191    -1.39e-06  2.04e-05  5.67e-04  5.93e-05     1.1
   16    -366.4979076711452990    -5.21e-07  6.85e-06  2.07e-04  4.46e-05     1.1
   17    -366.4979077079678973    -3.68e-08  2.16e-06  8.52e-05  4.97e-05     1.1
   18    -366.4979077363160513    -2.83e-08  2.13e-06  7.83e-05  2.29e-05     1.0
   19    -366.4979077471188020    -1.08e-08  9.41e-07  2.47e-05  7.53e-06     1.1
   20    -366.4979077523155411    -5.20e-09  2.19e-07  1.17e-05  1.86e-06     1.0
                 **** Energy Check signals convergence ****

               *****************************************************
               *                     SUCCESS                       *
               *           SCF CONVERGED AFTER  20 CYCLES          *
               *****************************************************


SMD CDS free energy correction energy :                 5.33046     Kcal/mol
Total Energy after SMD CDS correction =              -366.489413119 Eh
             **** ENERGY FILE WAS UPDATED (3_3_difluoropropanoic_acid_defluorinated.en.tmp) ****

----------------
TOTAL SCF ENERGY
----------------

Total Energy       :       -366.48941311897039 Eh           -9972.68393 eV

Components:
Nuclear Repulsion  :        227.32779082891412 Eh            6185.90367 eV
Electronic Energy  :       -593.67691391033554 Eh          -16154.77012 eV
One Electron Energy:       -942.33388932534172 Eh          -25642.20875 eV
Two Electron Energy:        348.65697541500612 Eh            9487.43863 eV
CPCM Dielectric    :         -0.14878467240016 Eh              -4.04864 eV
SMD CDS (Gcds)     :          0.00849463485130 Eh               0.23115 eV

Virial components:
Potential Energy   :       -731.40035031798789 Eh          -19902.41535 eV
Kinetic Energy     :        364.91093719901750 Eh            9929.73142 eV
Virial Ratio       :          2.00432564705259

DFT components:
N(Alpha)           :       22.999994608421 electrons
N(Beta)            :       22.999994608421 electrons
N(Total)           :       45.999989216842 electrons
E(X)               :      -43.055648914252 Eh       
E(C)               :       -1.545088350263 Eh       
E(XC)              :      -44.600737264515 Eh       

CPCM Solvation Model Properties:
Surface-charge          :         -1.02441065855286
Corrected charge        :         -1.00000000000000
Outlying charge corr.   :          0.00005385289129 Eh               0.00147 eV
Free-energy (cav+disp)  :          0.00849463485130 Eh               0.23115 eV

---------------
SCF CONVERGENCE
---------------

  Last Energy change         ...    5.1967e-09  Tolerance :   1.0000e-08
  Last MAX-Density change    ...    1.1748e-05  Tolerance :   1.0000e-07
  Last RMS-Density change    ...    2.1902e-07  Tolerance :   5.0000e-09
  Last DIIS Error            ...    2.5603e-03  Tolerance :   5.0000e-07
  Last Orbital Gradient      ...    1.8579e-06  Tolerance :   1.0000e-05
  Last Orbital Rotation      ...    4.3981e-06  Tolerance :   1.0000e-05


----------------
ORBITAL ENERGIES
----------------

  NO   OCC          E(Eh)            E(eV) 
   0   2.0000     -24.392865      -663.7636 
   1   2.0000     -18.828291      -512.3439 
   2   2.0000     -18.767879      -510.7000 
   3   2.0000     -10.136253      -275.8215 
   4   2.0000     -10.044459      -273.3236 
   5   2.0000      -9.966931      -271.2140 
   6   2.0000      -1.233091       -33.5541 
   7   2.0000      -1.055724       -28.7277 
   8   2.0000      -0.967389       -26.3240 
   9   2.0000      -0.779799       -21.2194 
  10   2.0000      -0.666620       -18.1397 
  11   2.0000      -0.591308       -16.0903 
  12   2.0000      -0.558212       -15.1897 
  13   2.0000      -0.534253       -14.5378 
  14   2.0000      -0.511210       -13.9107 
  15   2.0000      -0.476694       -12.9715 
  16   2.0000      -0.461584       -12.5603 
  17   2.0000      -0.433703       -11.8017 
  18   2.0000      -0.399131       -10.8609 
  19   2.0000      -0.386155       -10.5078 
  20   2.0000      -0.363282        -9.8854 
  21   2.0000      -0.311380        -8.4731 
  22   2.0000      -0.270025        -7.3477 
  23   0.0000      -0.266596        -7.2544 
  24   0.0000      -0.060396        -1.6435 
  25   0.0000      -0.006572        -0.1788 
  26   0.0000       0.014860         0.4044 
  27   0.0000       0.042768         1.1638 
  28   0.0000       0.069599         1.8939 
  29   0.0000       0.090270         2.4564 
  30   0.0000       0.107792         2.9332 
  31   0.0000       0.115631         3.1465 
  32   0.0000       0.149522         4.0687 
  33   0.0000       0.170862         4.6494 
*Only the first 10 virtual orbitals were printed.

                    ********************************
                    * MULLIKEN POPULATION ANALYSIS *
                    ********************************

-----------------------
MULLIKEN ATOMIC CHARGES
-----------------------
   0 C :    0.380187
   1 C :   -0.100880
   2 O :   -0.179501
   3 H :    0.194285
   4 O :   -0.346082
   5 C :    0.266141
   6 H :    0.292018
   7 H :    0.230174
   8 F :    0.028537
   9 H :    0.235120
Sum of atomic charges:    1.0000000

--------------------------------
MULLIKEN REDUCED ORBITAL CHARGES
--------------------------------
  0 C s       :     3.301645  s :     3.301645
      pz      :     0.656265  p :     2.173192
      px      :     0.647950
      py      :     0.868977
      dz2     :     0.017969  d :     0.131330
      dxz     :     0.027244
      dyz     :     0.019932
      dx2y2   :     0.039564
      dxy     :     0.026621
      f0      :     0.000796  f :     0.013646
      f+1     :     0.002158
      f-1     :     0.001235
      f+2     :     0.001460
      f-2     :     0.002298
      f+3     :     0.003610
      f-3     :     0.002091

  1 C s       :     3.111315  s :     3.111315
      pz      :     1.081161  p :     2.910808
      px      :     0.857981
      py      :     0.971666
      dz2     :     0.010146  d :     0.073978
      dxz     :     0.011697
      dyz     :     0.017632
      dx2y2   :     0.013787
      dxy     :     0.020715
      f0      :     0.000335  f :     0.004778
      f+1     :     0.000483
      f-1     :     0.000566
      f+2     :     0.000427
      f-2     :     0.000776
      f+3     :     0.001203
      f-3     :     0.000988

  2 O s       :     3.735179  s :     3.735179
      pz      :     1.630329  p :     4.414535
      px      :     1.542982
      py      :     1.241225
      dz2     :     0.004545  d :     0.028487
      dxz     :     0.006103
      dyz     :     0.002581
      dx2y2   :     0.006984
      dxy     :     0.008274
      f0      :     0.000188  f :     0.001300
      f+1     :     0.000213
      f-1     :     0.000196
      f+2     :     0.000096
      f-2     :     0.000221
      f+3     :     0.000202
      f-3     :     0.000185

  3 H s       :     0.766001  s :     0.766001
      pz      :     0.015734  p :     0.037896
      px      :     0.009486
      py      :     0.012676
      dz2     :     0.000729  d :     0.001818
      dxz     :     0.000319
      dyz     :     0.000118
      dx2y2   :     0.000302
      dxy     :     0.000351

  4 O s       :     3.804593  s :     3.804593
      pz      :     1.473459  p :     4.510874
      px      :     1.699052
      py      :     1.338363
      dz2     :     0.002531  d :     0.028854
      dxz     :     0.000355
      dyz     :     0.009996
      dx2y2   :     0.007673
      dxy     :     0.008299
      f0      :     0.000211  f :     0.001760
      f+1     :     0.000027
      f-1     :     0.000174
      f+2     :     0.000399
      f-2     :     0.000039
      f+3     :     0.000526
      f-3     :     0.000385

  5 C s       :     3.084289  s :     3.084289
      pz      :     0.779129  p :     2.374815
      px      :     0.849888
      py      :     0.745798
      dz2     :     0.020350  d :     0.250551
      dxz     :     0.021812
      dyz     :     0.066239
      dx2y2   :     0.055919
      dxy     :     0.086233
      f0      :     0.002133  f :     0.024204
      f+1     :     0.002034
      f-1     :     0.002155
      f+2     :     0.003608
      f-2     :     0.002235
      f+3     :     0.007522
      f-3     :     0.004517

  6 H s       :     0.628585  s :     0.628585
      pz      :     0.024435  p :     0.071037
      px      :     0.019726
      py      :     0.026876
      dz2     :     0.000820  d :     0.008359
      dxz     :     0.000261
      dyz     :     0.002574
      dx2y2   :     0.002151
      dxy     :     0.002554

  7 H s       :     0.729639  s :     0.729639
      pz      :     0.016112  p :     0.038343
      px      :     0.009426
      py      :     0.012805
      dz2     :     0.000634  d :     0.001845
      dxz     :     0.000463
      dyz     :     0.000196
      dx2y2   :     0.000267
      dxy     :     0.000286

  8 F s       :     3.916466  s :     3.916466
      pz      :     1.701627  p :     5.037480
      px      :     1.594478
      py      :     1.741374
      dz2     :     0.002045  d :     0.016833
      dxz     :     0.003785
      dyz     :     0.002109
      dx2y2   :     0.003793
      dxy     :     0.005102
      f0      :     0.000068  f :     0.000684
      f+1     :     0.000072
      f-1     :     0.000048
      f+2     :     0.000059
      f-2     :     0.000156
      f+3     :     0.000127
      f-3     :     0.000153

  9 H s       :     0.731142  s :     0.731142
      pz      :     0.014062  p :     0.031927
      px      :     0.007031
      py      :     0.010835
      dz2     :     0.000470  d :     0.001811
      dxz     :     0.000342
      dyz     :     0.000213
      dx2y2   :     0.000298
      dxy     :     0.000487



                     *******************************
                     * LOEWDIN POPULATION ANALYSIS *
                     *******************************

----------------------
LOEWDIN ATOMIC CHARGES
----------------------
   0 C :    0.286971
   1 C :    0.046632
   2 O :    0.446459
   3 H :    0.084084
   4 O :    0.095446
   5 C :   -0.459255
   6 H :   -0.034296
   7 H :    0.109895
   8 F :    0.352816
   9 H :    0.071248

-------------------------------
LOEWDIN REDUCED ORBITAL CHARGES
-------------------------------
  0 C s       :     2.869247  s :     2.869247
      pz      :     0.659215  p :     2.296576
      px      :     0.736121
      py      :     0.901241
      dz2     :     0.050914  d :     0.457743
      dxz     :     0.100416
      dyz     :     0.057075
      dx2y2   :     0.113420
      dxy     :     0.135919
      f0      :     0.007911  f :     0.089462
      f+1     :     0.011762
      f-1     :     0.007225
      f+2     :     0.009143
      f-2     :     0.016771
      f+3     :     0.020289
      f-3     :     0.016360

  1 C s       :     2.715096  s :     2.715096
      pz      :     1.003178  p :     2.884387
      px      :     0.907065
      py      :     0.974144
      dz2     :     0.047558  d :     0.317576
      dxz     :     0.052278
      dyz     :     0.057036
      dx2y2   :     0.056913
      dxy     :     0.103792
      f0      :     0.003526  f :     0.036310
      f+1     :     0.004841
      f-1     :     0.004314
      f+2     :     0.003901
      f-2     :     0.004472
      f+3     :     0.007604
      f-3     :     0.007653

  2 O s       :     3.211652  s :     3.211652
      pz      :     1.483930  p :     4.258486
      px      :     1.503419
      py      :     1.271136
      dz2     :     0.009814  d :     0.077380
      dxz     :     0.009945
      dyz     :     0.008632
      dx2y2   :     0.023613
      dxy     :     0.025376
      f0      :     0.000364  f :     0.006023
      f+1     :     0.000378
      f-1     :     0.000605
      f+2     :     0.000565
      f-2     :     0.001123
      f+3     :     0.001498
      f-3     :     0.001489

  3 H s       :     0.733116  s :     0.733116
      pz      :     0.060486  p :     0.152051
      px      :     0.037578
      py      :     0.053986
      dz2     :     0.008571  d :     0.030749
      dxz     :     0.005365
      dyz     :     0.007803
      dx2y2   :     0.003962
      dxy     :     0.005049

  4 O s       :     3.405166  s :     3.405166
      pz      :     1.376645  p :     4.428590
      px      :     1.564118
      py      :     1.487827
      dz2     :     0.007993  d :     0.064690
      dxz     :     0.000298
      dyz     :     0.014587
      dx2y2   :     0.023470
      dxy     :     0.018342
      f0      :     0.000515  f :     0.006108
      f+1     :     0.000112
      f-1     :     0.001005
      f+2     :     0.000896
      f-2     :     0.000068
      f+3     :     0.001733
      f-3     :     0.001778

  5 C s       :     2.749819  s :     2.749819
      pz      :     0.767056  p :     2.629276
      px      :     0.905051
      py      :     0.957170
      dz2     :     0.086420  d :     0.928779
      dxz     :     0.085340
      dyz     :     0.199670
      dx2y2   :     0.241504
      dxy     :     0.315845
      f0      :     0.010335  f :     0.151380
      f+1     :     0.009816
      f-1     :     0.014082
      f+2     :     0.023401
      f-2     :     0.016174
      f+3     :     0.047779
      f-3     :     0.029793

  6 H s       :     0.632094  s :     0.632094
      pz      :     0.081756  p :     0.308799
      px      :     0.087561
      py      :     0.139482
      dz2     :     0.008171  d :     0.093403
      dxz     :     0.003058
      dyz     :     0.027673
      dx2y2   :     0.024663
      dxy     :     0.029840

  7 H s       :     0.703790  s :     0.703790
      pz      :     0.064391  p :     0.155081
      px      :     0.036381
      py      :     0.054309
      dz2     :     0.008875  d :     0.031234
      dxz     :     0.006279
      dyz     :     0.008606
      dx2y2   :     0.003550
      dxy     :     0.003924

  8 F s       :     3.614287  s :     3.614287
      pz      :     1.664005  p :     5.000828
      px      :     1.612235
      py      :     1.724588
      dz2     :     0.003331  d :     0.030667
      dxz     :     0.007507
      dyz     :     0.002954
      dx2y2   :     0.006343
      dxy     :     0.010533
      f0      :     0.000146  f :     0.001401
      f+1     :     0.000128
      f-1     :     0.000084
      f+2     :     0.000156
      f-2     :     0.000289
      f+3     :     0.000324
      f-3     :     0.000275

  9 H s       :     0.747552  s :     0.747552
      pz      :     0.067764  p :     0.151672
      px      :     0.033092
      py      :     0.050817
      dz2     :     0.006069  d :     0.029527
      dxz     :     0.005760
      dyz     :     0.009348
      dx2y2   :     0.003199
      dxy     :     0.005152



                      *****************************
                      * MAYER POPULATION ANALYSIS *
                      *****************************

  NA   - Mulliken gross atomic population
  ZA   - Total nuclear charge
  QA   - Mulliken gross atomic charge
  VA   - Mayer's total valence
  BVA  - Mayer's bonded valence
  FA   - Mayer's free valence

  ATOM       NA         ZA         QA         VA         BVA        FA
  0 C      5.6198     6.0000     0.3802     3.5926     3.5926     0.0000
  1 C      6.1009     6.0000    -0.1009     3.7627     3.7627     0.0000
  2 O      8.1795     8.0000    -0.1795     2.3274     2.3274     0.0000
  3 H      0.8057     1.0000     0.1943     0.9963     0.9963     0.0000
  4 O      8.3461     8.0000    -0.3461     2.1669     2.1669    -0.0000
  5 C      5.7339     6.0000     0.2661     4.4169     4.4169     0.0000
  6 H      0.7080     1.0000     0.2920     0.9627     0.9627     0.0000
  7 H      0.7698     1.0000     0.2302     0.9794     0.9794    -0.0000
  8 F      8.9715     9.0000     0.0285     1.4422     1.4422     0.0000
  9 H      0.7649     1.0000     0.2351     0.9565     0.9565     0.0000

  Mayer bond orders larger than 0.100000
B(  0-C ,  1-C ) :   1.0688 B(  0-C ,  8-F ) :   1.3559 B(  0-C ,  9-H ) :   0.9181 
B(  1-C ,  3-H ) :   0.8852 B(  1-C ,  5-C ) :   0.9693 B(  1-C ,  7-H ) :   0.8411 
B(  2-O ,  5-C ) :   1.3164 B(  2-O ,  6-H ) :   0.9108 B(  4-O ,  5-C ) :   2.0116 


-------
TIMINGS
-------

Total SCF time: 0 days 0 hours 0 min 24 sec 

Total time                  ....      24.506 sec
Sum of individual times     ....      23.491 sec  ( 95.9%)

SCF preparation             ....       0.075 sec  (  0.3%)
Fock matrix formation       ....      23.038 sec  ( 94.0%)
  Startup                   ....       0.004 sec  (  0.0% of F)
  Split-RI-J                ....       5.283 sec  ( 22.9% of F)
  XC integration            ....      12.306 sec  ( 53.4% of F)
    XC Preparation          ....       0.000 sec  (  0.0% of XC)
    Basis function eval.    ....       3.488 sec  ( 28.3% of XC)
    Density eval.           ....       3.611 sec  ( 29.3% of XC)
    XC-Functional eval.     ....       0.447 sec  (  3.6% of XC)
    XC-Potential eval.      ....       4.413 sec  ( 35.9% of XC)
  CPCM terms                ....       6.343 sec  ( 27.5% of F)
Diagonalization             ....       0.000 sec  (  0.0%)
Density matrix formation    ....       0.070 sec  (  0.3%)
Total Energy calculation    ....       0.006 sec  (  0.0%)
Population analysis         ....       0.011 sec  (  0.0%)
Orbital Transformation      ....       0.034 sec  (  0.1%)
Orbital Orthonormalization  ....       0.000 sec  (  0.0%)
DIIS solution               ....       0.131 sec  (  0.5%)
SOSCF solution              ....       0.127 sec  (  0.5%)
Finished LeanSCF after  24.5 sec

Maximum memory used throughout the entire LEANSCF-calculation: 22.8 MB

------------------------------------------------------------------------------
                         ORCA PROPERTY INTEGRAL CALCULATIONS
------------------------------------------------------------------------------

GBWName                                   ... 3_3_difluoropropanoic_acid_defluorinated.gbw
Number of atoms                           ...     10
Number of basis functions                 ...    242
Max core memory                           ...  28672 MB

Dipole integrals                          ... YES
Quadrupole integrals                      ...  NO
Linear momentum integrals                 ...  NO
Angular momentum integrals                ...  NO
Higher moments length integrals           ...  NO
Higher moments velocity integrals         ...  NO
Kinetic energy integrals                  ...  NO
GIAO right hand sides                     ...  NO
GIAO dipole derivative integrals          ...  NO
SOC integrals                             ...  NO
EPR diamagnetic integrals (GIAO)          ...  NO
EPR gauge integrals                       ...  NO
Field gradient integrals                  ...  NO (   0 nuclei)
Spin-dipole/Fermi contact integrals       ...  NO (   0 nuclei)
Contact density integrals                 ...  NO (   0 nuclei)
Nucleus-orbit integrals                   ...  NO (   0 nuclei)
Geometric perturbations                   ...  NO (  10 nuclei)

Choice of electric origin   ... Center of mass
Position of electric origin ... ( -9.3381,  1.9441, -0.0716) 
Choice of magnetic origin   ... GIAO
Position of magnetic origin ... (  0.0000,  0.0000,  0.0000) 

Calculating integrals                     ... Electric Dipole (Length)     done (  0.0 sec)

Property integrals calculated in   0.0 sec

Maximum memory used throughout the entire PROPINT-calculation: 19.8 MB


-------------------------------------------------------------------------------
                          DFT DISPERSION CORRECTION                            
                                                                               
                                DFTD4 V3.4.0                                   
-------------------------------------------------------------------------------
The PBE functional is recognized
Active option DFTDOPT                   ...         5   

-------------------------   ----------------
Dispersion correction           -0.005506634
-------------------------   ----------------


-------------------------   --------------------
FINAL SINGLE POINT ENERGY      -366.494919753394
-------------------------   --------------------

------------------------------------------------------------------------------
                         ORCA SCF GRADIENT CALCULATION
------------------------------------------------------------------------------

Nuc. rep. gradient        (SHARK) ... done (  0.0 sec)
HCore & Overlap gradient  (SHARK) ... done (  0.2 sec)
Split-RIJ-J gradient      (SHARK) ... done (  1.3 sec)
XC gradient                       ... done (  4.1 sec)
CPCM gradient                     ... done (  0.9 sec)
SMD gradient                      ... done (  0.0 sec)
Dispersion correction             ... done (  0.0 sec)

-------------------
DISPERSION GRADIENT
-------------------

   1   C   :   -0.000190529   -0.000024336    0.000066072
   2   C   :   -0.000024595    0.000043637    0.000008479
   3   O   :    0.000148450    0.000063345   -0.000065285
   4   H   :   -0.000036585    0.000041687   -0.000034134
   5   O   :    0.000125521   -0.000142312   -0.000038886
   6   C   :    0.000116575   -0.000015329   -0.000050679
   7   H   :    0.000046523    0.000013725   -0.000020614
   8   H   :   -0.000007608    0.000043037    0.000046960
   9   F   :   -0.000126947    0.000006336    0.000051195
  10   H   :   -0.000050805   -0.000029790    0.000036892

Difference to translation invariance:
           :    0.0000000000   -0.0000000000   -0.0000000000

Difference to rotation invariance:
           :   -0.0000000000   -0.0000000000    0.0000000000

Norm of the Dispersion gradient    ...    0.0004034930
RMS gradient                       ...    0.0000736674
MAX gradient                       ...    0.0001905293

------------------
CARTESIAN GRADIENT
------------------

   1   C   :   -0.033790077   -0.111632246   -0.092161756
   2   C   :    0.032582830    0.044565021    0.045813125
   3   O   :   -0.016867651   -0.012033181    0.007248146
   4   H   :   -0.000787743   -0.010745196    0.004570586
   5   O   :    0.002241464    0.008565282    0.002358731
   6   C   :    0.015809485    0.014099419   -0.011870223
   7   H   :   -0.005587914   -0.008745809    0.004224813
   8   H   :    0.011222036   -0.004952838   -0.016499550
   9   F   :   -0.020488269    0.039846705    0.040447896
  10   H   :    0.015665838    0.041032842    0.015868232

Difference to translation invariance:
           :   -0.0000000000   -0.0000000000    0.0000000000

Difference to rotation invariance:
           :    0.0018226427   -0.0011821274    0.0008159836

Norm of the Cartesian gradient     ...    0.1868394683
RMS gradient                       ...    0.0341120638
MAX gradient                       ...    0.1116322457

-------
TIMINGS
-------

Total SCF gradient time     ....        6.568 sec

Densities                   ....       0.001 sec  (  0.0%)
One electron gradient       ....       0.194 sec  (  2.9%)
RI-J Coulomb gradient       ....       1.346 sec  ( 20.5%)
XC gradient                 ....       4.129 sec  ( 62.9%)
CPCM gradient               ....       0.869 sec  ( 13.2%)
   A-Matrix (El+Nuc)        ....       0.021 sec  (  0.3%)
   Potential                ....       0.848 sec  ( 12.9%)
SMD gradient                ....       0.001 sec  (  0.0%)

Maximum memory used throughout the entire SCFGRAD-calculation: 38.3 MB
------------------------------------------------------------------------------
                         ORCA GEOMETRY RELAXATION STEP
------------------------------------------------------------------------------

Reading the OPT-File                    .... done
Getting information on internals        .... done
Copying old internal coords+grads       .... done
Making the new internal coordinates     .... (2022 redundants) done
Validating the new internal coordinates .... (2022 redundants) done
Calculating the B-matrix                .... done
Calculating the G,G- and P matrices     .... done
Transforming gradient to internals      .... done
Projecting the internal gradient        .... done
Number of atoms                         ....  10
Number of internal coordinates          ....  34
Current Energy                          ....  -366.494919753 Eh
Current gradient norm                   ....     0.186839468 Eh/bohr
Maximum allowed component of the step   ....  0.300
Current trust radius                    ....  0.300
Evaluating the initial hessian          ....  (Almloef) done
Projecting the Hessian                  .... done
Forming the augmented Hessian           .... done
Diagonalizing the augmented Hessian     .... done
Last element of RFO vector              ....  0.887836586
Lowest eigenvalues of augmented Hessian:
 -0.058723183  0.010000090  0.011450694  0.020824224  0.043443500
Length of the computed step             ....  0.518292317
Warning: the length of the step is outside the trust region - taking restricted step instead
The input lambda is                     ....     0.009000
   iter:   5  x=   -0.140702  g=    2.070597 f(x)=     0.125730
   iter:  10  x=   -0.202527  g=    0.492672 f(x)=     0.000000
The output lambda is                    ....    -0.202527 (11 iterations)
The final length of the internal step   ....  0.300000000
Converting the step to Cartesian space:
 Initial RMS(Int)=    0.0514495755
Transforming coordinates:
 Iter   0:  RMS(Cart)=    0.0635225961 RMS(Int)=    1.0644236321
 Iter   5:  RMS(Cart)=    0.0000017480 RMS(Int)=    0.0000018287
done
Storing new coordinates                 .... done

                                .--------------------.
          ----------------------|Geometry convergence|-------------------------
          Item                value                   Tolerance       Converged
          ---------------------------------------------------------------------
          RMS gradient        0.0224463409            0.0001000000      NO
          MAX gradient        0.0636312437            0.0003000000      NO
          RMS step            0.0514495755            0.0020000000      NO
          MAX step            0.1447329899            0.0040000000      NO
          -------------------------------------------------------------------------
          ........................................................
          Max(Bonds)      0.0369      Max(Angles)    8.29
          Max(Dihed)        6.73      Max(Improp)    0.00
          ---------------------------------------------------------------------

The optimization has not yet converged - more geometry cycles are needed


    ---------------------------------------------------------------------------
                         Redundant Internal Coordinates
                            (Angstroem and degrees)

        Definition                    Value    dE/dq     Step     New-Value
    ----------------------------------------------------------------------------
     1. B(C   1,C   0)                1.5404  0.039222 -0.0369    1.5035   
     2. B(H   3,C   1)                1.0929 -0.009702  0.0092    1.1021   
     3. B(C   5,C   1)                1.5172 -0.005051  0.0045    1.5217   
     4. B(C   5,O   4)                1.2142 -0.008061  0.0034    1.2176   
     5. B(C   5,O   2)                1.3083 -0.032658  0.0180    1.3263   
     6. B(H   6,O   2)                0.9727 -0.006266  0.0047    0.9775   
     7. B(H   7,C   1)                1.0929 -0.013208  0.0125    1.1054   
     8. B(F   8,C   0)                1.3459  0.051233 -0.0333    1.3126   
     9. B(H   9,C   0)                1.0936 -0.010262  0.0097    1.1034   
    10. A(C   1,C   0,F   8)          109.73 -0.043829    5.44    115.17   
    11. A(C   1,C   0,H   9)          110.34 -0.063631    8.29    118.63   
    12. A(F   8,C   0,H   9)          107.87  0.004037    2.14    110.01   
    13. A(H   3,C   1,C   5)          109.34 -0.000810    0.28    109.62   
    14. A(C   0,C   1,H   3)          109.14 -0.005735    0.85    109.99   
    15. A(C   0,C   1,H   7)          109.55  0.018415   -2.27    107.29   
    16. A(C   0,C   1,C   5)          112.17  0.002000   -0.19    111.98   
    17. A(H   3,C   1,H   7)          107.40  0.009088   -1.05    106.35   
    18. A(C   5,C   1,H   7)          109.13 -0.022604    2.33    111.46   
    19. A(C   5,O   2,H   6)          108.23 -0.016973    1.67    109.89   
    20. A(O   2,C   5,O   4)          122.12  0.002922   -0.25    121.87   
    21. A(C   1,C   5,O   4)          124.34  0.006941   -0.63    123.71   
    22. A(C   1,C   5,O   2)          113.45 -0.009947    0.92    114.36   
    23. D(H   7,C   1,C   0,F   8)     55.10 -0.011298    3.09     58.19   
    24. D(C   5,C   1,C   0,H   9)     57.73  0.035273   -6.73     50.99   
    25. D(H   3,C   1,C   0,F   8)    -62.23 -0.029516    5.16    -57.07   
    26. D(C   5,C   1,C   0,F   8)    176.45 -0.025856    4.34    180.79   
    27. D(H   3,C   1,C   0,H   9)    179.05  0.031613   -5.91    173.13   
    28. D(O   2,C   5,C   1,H   3)     52.87  0.001727   -0.37     52.50   
    29. D(O   4,C   5,O   2,H   6)   -178.45  0.001637   -0.49   -178.94   
    30. D(O   2,C   5,C   1,C   0)    174.07 -0.004766    0.78    174.85   
    31. D(C   1,C   5,O   2,H   6)     -1.74  0.000290    0.04     -1.70   
    32. D(O   4,C   5,C   1,H   3)   -130.51  0.000174    0.19   -130.32   
    33. D(O   4,C   5,C   1,C   0)     -9.30 -0.006319    1.34     -7.96   
    34. D(O   2,C   5,C   1,H   7)    -64.34  0.004201   -0.60    -64.94   
    ----------------------------------------------------------------------------

Geometry step timings:
Preparation and reading OPT file:      0.000 s ( 1.704 %)
Internal coordinates            :      0.000 s ( 2.530 %)
B/P matrices and projection     :      0.000 s (19.153 %)
Hessian update/contruction      :      0.000 s (15.798 %)
Making the step                 :      0.001 s (28.085 %)
Converting the step to Cartesian:      0.000 s ( 4.130 %)
Storing new data                :      0.000 s ( 2.633 %)
Checking convergence            :      0.000 s ( 2.943 %)
Final printing                  :      0.000 s (22.922 %)
Total time                      :      0.002 s

Time for energy+gradient        :     32.361 s
Time for complete geometry iter :     32.397 s

         *************************************************************
         *                GEOMETRY OPTIMIZATION CYCLE   2            *
         *************************************************************
---------------------------------
CARTESIAN COORDINATES (ANGSTROEM)
---------------------------------
  C     -6.241974    0.728038    0.446598
  C     -5.128585    1.652264    0.038391
  O     -2.929431    1.659773   -0.912041
  H     -5.475898    2.330602   -0.757809
  O     -3.779583   -0.317910   -0.352873
  C     -3.900750    0.890557   -0.438865
  H     -3.205700    2.597090   -0.887768
  H     -4.896788    2.291505    0.909874
  F     -7.336469    1.332561    0.845917
  H     -6.007531   -0.089791    1.149196

----------------------------
CARTESIAN COORDINATES (A.U.)
----------------------------
  NO LB      ZA    FRAG     MASS         X           Y           Z
   0 C     6.0000    0    12.011  -11.795621    1.375792    0.843948
   1 C     6.0000    0    12.011   -9.691621    3.122327    0.072548
   2 O     8.0000    0    15.999   -5.535822    3.136517   -1.723508
   3 H     1.0000    0     1.008  -10.347948    4.404199   -1.432052
   4 O     8.0000    0    15.999   -7.142377   -0.600762   -0.666834
   5 C     6.0000    0    12.011   -7.371349    1.682909   -0.829336
   6 H     1.0000    0     1.008   -6.057895    4.907789   -1.677638
   7 H     1.0000    0     1.008   -9.253589    4.330318    1.719413
   8 F     9.0000    0    18.998  -13.863918    2.518175    1.598552
   9 H     1.0000    0     1.008  -11.352589   -0.169681    2.171667

--------------------------------
INTERNAL COORDINATES (ANGSTROEM)
--------------------------------
 C      0   0   0     0.000000000000     0.00000000     0.00000000
 C      1   0   0     1.503483322117     0.00000000     0.00000000
 O      2   1   0     2.395758273049   142.13004061     0.00000000
 H      2   1   3     1.102135437180   109.94537760   117.90129140
 O      3   2   1     2.224108452496    63.03783884   350.74366741
 C      5   3   2     1.217566295048    30.42711259     1.78267323
 H      3   2   1     0.977484980583    74.55667129   170.52006786
 H      2   1   3     1.105369622772   107.26133323   233.01080353
 F      1   2   3     1.312564188568   114.64446187   185.36839906
 H      1   2   3     1.103382179584   118.11057292    54.80844515

---------------------------
INTERNAL COORDINATES (A.U.)
---------------------------
 C      0   0   0     0.000000000000     0.00000000     0.00000000
 C      1   0   0     2.841171725720     0.00000000     0.00000000
 O      2   1   0     4.527327019139   142.13004061     0.00000000
 H      2   1   3     2.082734138761   109.94537760   117.90129140
 O      3   2   1     4.202955867357    63.03783884   350.74366741
 C      5   3   2     2.300866847534    30.42711259     1.78267323
 H      3   2   1     1.847178913324    74.55667129   170.52006786
 H      2   1   3     2.088845863795   107.26133323   233.01080353
 F      1   2   3     2.480386849586   114.64446187   185.36839906
 H      1   2   3     2.085090140464   118.11057292    54.80844515

------------------------------------------------------------------------------
                   ___                                                        
                  /   \      - P O W E R E D   B Y -                         
                 /     \                                                     
                 |  |  |   _    _      __       _____    __    __             
                 |  |  |  | |  | |    /  \     |  _  \  |  |  /  |          
                  \  \/   | |  | |   /    \    | | | |  |  | /  /          
                 / \  \   | |__| |  /  /\  \   | |_| |  |  |/  /          
                |  |  |   |  __  | /  /__\  \  |    /   |      \           
                |  |  |   | |  | | |   __   |  |    \   |  |\   \          
                \     /   | |  | | |  |  |  |  | |\  \  |  | \   \       
                 \___/    |_|  |_| |__|  |__|  |_| \__\ |__|  \__/        
                                                                              
                      - O R C A' S   B I G   F R I E N D -                    
                                      &                                       
                       - I N T E G R A L  F E E D E R -                       
                                                                              
 v1 FN, 2020, v2 2021, v3 2022-2024                                           
------------------------------------------------------------------------------


----------------------
SHARK INTEGRAL PACKAGE
----------------------

Number of atoms                             ...     10
Number of basis functions                   ...    242
Number of shells                            ...     90
Maximum angular momentum                    ...      3
Integral batch strategy                     ... SHARK/LIBINT Hybrid
RI-J (if used) integral strategy            ... SPLIT-RIJ (Revised 2003 algorithm where possible)
Printlevel                                  ...      1
Contraction scheme used                     ... SEGMENTED contraction
Prescreening option                         ... SCHWARTZ
   Thresh                                   ... 2.500e-11
   Tcut                                     ... 2.500e-12
   Tpresel                                  ... 2.500e-12 
Coulomb Range Separation                    ... NOT USED
Exchange Range Separation                   ... NOT USED
Multipole approximations                    ... NOT USED
Finite Nucleus Model                        ... NOT USED
CABS basis                                  ... NOT available
Auxiliary Coulomb fitting basis             ... AVAILABLE
   # of basis functions in Aux-J            ...    338
   # of shells in Aux-J                     ...    110
   Maximum angular momentum in Aux-J        ...      4
Auxiliary J/K fitting basis                 ... NOT available
Auxiliary Correlation fitting basis         ... NOT available
Auxiliary 'external' fitting basis          ... NOT available

Checking pre-screening integrals            ... done (  0.0 sec) Dimension = 90
   => SHARK Basis and OBASIS are compatible. Storing Pre-screening
Shell pair information
Shell pair cut-off parameter TPreSel        ...   2.5e-12
Total number of shell pairs                 ...      4095
Shell pairs after pre-screening             ...      3780
Total number of primitive shell pairs       ...     11772
Primitive shell pairs kept                  ...      8510
          la=0 lb=0:    804 shell pairs
          la=1 lb=0:   1023 shell pairs
          la=1 lb=1:    343 shell pairs
          la=2 lb=0:    608 shell pairs
          la=2 lb=1:    396 shell pairs
          la=2 lb=2:    125 shell pairs
          la=3 lb=0:    226 shell pairs
          la=3 lb=1:    148 shell pairs
          la=3 lb=2:     88 shell pairs
          la=3 lb=3:     19 shell pairs

Checking whether 4 symmetric matrices of dimension 242 fit in memory
:Max Core in MB      =  28672.00
 MB in use           =      8.53
 MB left             =  28663.47
 MB needed           =      0.90
 Data fit in memory  = YES
Calculating RI/J V-Matrix + Cholesky decomp.... done (  0.0 sec)
Calculating Nuclear repulsion               ... done (  0.0 sec) ENN=    227.351286391569 Eh

Diagonalization of the overlap matrix:
Smallest eigenvalue                        ... 2.301e-04
Time for diagonalization                   ...    0.007 sec
Threshold for overlap eigenvalues          ... 1.000e-07
Number of eigenvalues below threshold      ... 0
Time for construction of square roots      ...    0.004 sec
Total time needed                          ...    0.011 sec

-------------------
DFT GRID GENERATION
-------------------

General Integration Accuracy     IntAcc      ... 4.388
Radial Grid Type                 RadialGrid  ... OptM3 with GC (2021)
Angular Grid (max. ang.)         AngularGrid ... 4 (Lebedev-302)
Angular grid pruning method      GridPruning ... 4 (adaptive)
Weight generation scheme         WeightScheme... mBecke (2022)
Basis function cutoff            BFCut       ... 1.0000e-11
Integration weight cutoff        WCut        ... 1.0000e-14
Partially contracted basis set               ... off
Rotationally invariant grid construction     ... off
Angular grids for H and He will be reduced by one unit

Total number of grid points                  ...    49489
Total number of batches                      ...      779
Average number of points per batch           ...       63
Average number of grid points per atom       ...     4949
Grids setup in   0.4 sec
Initializing property integral containers    ... done (  0.0 sec)

SHARK setup successfully completed in   0.5 seconds

Maximum memory used throughout the entire STARTUP-calculation: 30.6 MB
Occupation numbers will be reassigned to an Aufbau configuration
             **** ENERGY FILE WAS UPDATED (3_3_difluoropropanoic_acid_defluorinated.en.tmp) ****
Finished Guess after   0.1 sec
Maximum memory used throughout the entire GUESS-calculation: 19.8 MB
--------------------
CPCM SOLVATION MODEL
--------------------
CPCM parameters:
  Epsilon                                         ...      78.3550
  Refrac                                          ...       1.3328
  Rsolv                                           ...       1.3000
  Surface type                                    ... GAUSSIAN VDW
  Discretization scheme                           ... Constant charge density
    Threshold for H atoms                         ...       5.0000 (charges/Ang^2)
[...]
     27       0.095413  -0.035215  -0.183065  -0.140933   0.012351  -0.168538
     28       0.136512  -0.171452  -0.109395   0.057233   0.108286   0.173281
     29       0.187923  -0.457648  -0.296460  -0.001974   0.225886   0.807143
                 18         19         20         21         22         23    
      0      -0.070079  -0.044336  -0.023978   0.013773  -0.108728  -0.099017
      1      -0.080610  -0.183692   0.045849   0.021103   0.126907  -0.014716
      2      -0.021400   0.100003  -0.037178  -0.046720  -0.032279   0.005603
      3      -0.039925   0.169916   0.003183   0.000742  -0.023807  -0.107843
      4       0.066731   0.174747  -0.056246  -0.071743   0.010309  -0.031803
      5      -0.017160  -0.115636  -0.008946  -0.018488   0.002648   0.032911
      6       0.069453  -0.007711   0.085725  -0.018845  -0.015844  -0.017320
      7       0.095053  -0.014523  -0.026515   0.015978  -0.001285  -0.020528
      8      -0.127768   0.023568  -0.054202   0.003898   0.011017   0.028029
      9       0.591080   0.194211  -0.101706  -0.171504  -0.063530   0.843676
     10       0.155636   0.434461   0.060260   0.257085  -0.044265   0.214360
     11      -0.156187   0.297124   0.239906   0.632999  -0.077811  -0.009906
     12       0.038826   0.011230   0.001070   0.009921  -0.002538  -0.019776
     13      -0.083898  -0.002831   0.045743  -0.033377  -0.005950   0.032122
     14       0.020108   0.003861  -0.033505   0.015681   0.003805  -0.004040
     15      -0.196063  -0.009598  -0.080055  -0.010712   0.035205   0.086146
     16      -0.012692  -0.006978  -0.004069   0.002359   0.007473  -0.000652
     17       0.209754  -0.041282   0.082632  -0.002545  -0.014666  -0.077064
     18       0.296283  -0.197889  -0.643373   0.270449   0.069376  -0.102361
     19       0.135951  -0.046481  -0.150497   0.079752   0.012827  -0.044346
     20      -0.333785   0.210968   0.623090  -0.237074  -0.065532   0.100991
     21       0.439391  -0.260600   0.124445  -0.011335   0.035466  -0.065234
     22      -0.092367   0.161918   0.163789   0.533424  -0.114537   0.329410
     23      -0.132724   0.039424  -0.103375  -0.167245  -0.002671  -0.085370
     24       0.034707  -0.033413   0.024208   0.002711   0.124948   0.059158
     25      -0.000936   0.010815  -0.015732  -0.006102  -0.082123  -0.006144
     26       0.008083  -0.013808   0.006118   0.004455   0.028549   0.004172
     27      -0.052473  -0.543842  -0.011545  -0.042370  -0.944714   0.236141
     28      -0.041990  -0.288551   0.090147   0.096207   0.084540  -0.005587
     29       0.139240  -0.044418   0.082146   0.183916  -0.099511  -0.005760
                 24         25         26         27         28         29    
      0       0.334604  -0.087195   0.004911  -0.001642  -0.002128  -0.000450
      1       0.008544  -0.025895   0.002230  -0.007543   0.085603  -0.000324
      2       0.007581  -0.005868   0.002965   0.001335  -0.025950  -0.000127
      3      -0.147112   0.053226   0.022027  -0.020445  -0.005177   0.000519
      4      -0.053972   0.051397   0.025296   0.070226   0.001097  -0.000452
      5       0.025919  -0.024374   0.065752  -0.046350  -0.003486   0.000152
      6       0.015661  -0.024628   0.000834   0.000171   0.000003   0.024416
      7       0.001517   0.045861  -0.000190  -0.000783  -0.000132  -0.054753
      8      -0.013483  -0.010972  -0.000530   0.000485  -0.000037   0.017653
      9       0.487361  -0.212453   0.033248   0.230572   0.010412   0.003016
     10       0.067613   0.052854  -0.091413  -0.836951  -0.065025   0.007796
     11      -0.061677   0.115344   0.067355   0.473327   0.035710  -0.008475
     12      -0.012967  -0.118441   0.000663   0.000405  -0.000066  -0.000261
     13       0.044135   0.371558  -0.001354  -0.000602  -0.000263   0.001593
     14      -0.018624  -0.154074  -0.000015   0.000007   0.000138  -0.000888
     15      -0.004685   0.164890  -0.002132   0.000795   0.000438   0.000937
     16      -0.051526  -0.590664   0.002734  -0.000542   0.000607  -0.002336
     17       0.025193   0.259742   0.002010  -0.000808  -0.000078   0.000778
     18      -0.049201   0.376916  -0.001880  -0.006778  -0.000354  -0.402139
     19      -0.014899   0.086764   0.002096   0.007962   0.001376   0.872354
     20       0.039962  -0.355250   0.000539   0.001288  -0.000388  -0.270593
     21      -0.070419  -0.092845  -0.317211   0.026093   0.009449  -0.000280
     22       0.105300   0.037002  -0.245737   0.040620   0.005272   0.000484
     23      -0.012760  -0.008008  -0.905127   0.083958   0.017755   0.001669
     24      -0.097031   0.027474  -0.001919   0.000095   0.001159   0.000236
     25       0.016731  -0.002442   0.000715   0.000127  -0.001431  -0.000014
     26      -0.006590   0.006046   0.000093   0.000274   0.000371   0.000096
     27      -0.760006   0.121357   0.002687  -0.007109   0.041473  -0.000410
     28      -0.042663  -0.021600  -0.014480   0.067492  -0.948726   0.000453
     29      -0.031079   0.018927   0.001341  -0.025544   0.290004  -0.000065


-----------
IR SPECTRUM
-----------

 Mode   freq       eps      Int      T**2         TX        TY        TZ
       cm**-1   L/(mol*cm) km/mol    a.u.
----------------------------------------------------------------------------
  6:     47.22   0.001922    9.71  0.012703  ( 0.054791 -0.051123  0.084185)
  7:    113.26   0.008778   44.36  0.024185  (-0.107352 -0.065666 -0.091371)
  8:    195.50   0.005311   26.84  0.008477  (-0.072057 -0.037128  0.043665)
  9:    396.08   0.001810    9.15  0.001426  ( 0.035070  0.003972 -0.013447)
 10:    448.15   0.019470   98.39  0.013558  ( 0.042480  0.086640  0.065168)
 11:    475.36   0.017067   86.25  0.011204  (-0.035109 -0.029470 -0.095411)
 12:    579.16   0.019873  100.43  0.010708  ( 0.102244 -0.001696  0.015854)
 13:    657.13   0.008158   41.23  0.003874  ( 0.043161 -0.008668 -0.044001)
 14:    696.39   0.005780   29.21  0.002590  ( 0.032474 -0.032753 -0.021516)
 15:    849.73   0.012621   63.78  0.004635  (-0.056258  0.038066 -0.004590)
 16:    927.08   0.056086  283.43  0.018879  (-0.130831 -0.010169  0.040729)
 17:   1069.07   0.012457   62.95  0.003636  ( 0.043892 -0.022710 -0.034554)
 18:   1136.79   0.040085  202.57  0.011004  (-0.080775 -0.027824  0.060869)
 19:   1196.61   0.032298  163.22  0.008423  (-0.084667 -0.013825  0.032610)
 20:   1231.97   0.116508  588.79  0.029512  (-0.117488 -0.033756  0.120704)
 21:   1263.43   0.030122  152.23  0.007440  ( 0.026629  0.081517 -0.009269)
 22:   1298.98   0.032026  161.85  0.007694  (-0.076106  0.029863 -0.031778)
 23:   1309.53   0.004824   24.38  0.001150  ( 0.009716  0.018689 -0.026569)
 24:   1485.20   0.087431  441.84  0.018371  ( 0.134851 -0.007401  0.011445)
 25:   1741.76   0.109489  553.31  0.019617  ( 0.045510 -0.124257  0.045888)
 26:   2820.25   0.040734  205.85  0.004507  (-0.022955 -0.040144 -0.048670)
 27:   3060.45   0.003910   19.76  0.000399  ( 0.003200 -0.014579  0.013263)
 28:   3105.68   0.003564   18.01  0.000358  (-0.005402 -0.016007  0.008528)
 29:   3633.85   0.047585  240.47  0.004086  (-0.004382  0.055476 -0.031458)

* The epsilon (eps) is given for a Dirac delta lineshape.
** The dipole moment derivative (T) already includes vibrational overlap.

The first frequency considered to be a vibration is 6
The total number of vibrations considered is 24


--------------------------
THERMOCHEMISTRY AT 298.15K
--------------------------

Temperature         ...   298.15 K
Pressure            ...     1.00 atm
Total Mass          ...    91.06 AMU
Quasi RRHO          ...     True
Cut-Off Frequency   ...     1.00 cm^-1

Throughout the following assumptions are being made:
  (1) The electronic state is orbitally nondegenerate
  (2) There are no thermally accessible electronically excited states
  (3) Hindered rotations indicated by low frequency modes are not
      treated as such but are treated as vibrations and this may
      cause some error
  (4) All equations used are the standard statistical mechanics
      equations for an ideal gas
  (5) All vibrations are strictly harmonic

freq.      47.22  E(vib)   ...       0.53 
freq.     113.26  E(vib)   ...       0.45 
freq.     195.50  E(vib)   ...       0.36 
freq.     396.08  E(vib)   ...       0.20 
freq.     448.15  E(vib)   ...       0.17 
freq.     475.36  E(vib)   ...       0.15 
freq.     579.16  E(vib)   ...       0.11 
freq.     657.13  E(vib)   ...       0.08 
freq.     696.39  E(vib)   ...       0.07 
freq.     849.73  E(vib)   ...       0.04 
freq.     927.08  E(vib)   ...       0.03 
freq.    1069.07  E(vib)   ...       0.02 
freq.    1136.79  E(vib)   ...       0.01 
freq.    1196.61  E(vib)   ...       0.01 
freq.    1231.97  E(vib)   ...       0.01 
freq.    1263.43  E(vib)   ...       0.01 
freq.    1298.98  E(vib)   ...       0.01 
freq.    1309.53  E(vib)   ...       0.01 
freq.    1485.20  E(vib)   ...       0.00 
freq.    1741.76  E(vib)   ...       0.00 
freq.    2820.25  E(vib)   ...       0.00 
freq.    3060.45  E(vib)   ...       0.00 
freq.    3105.68  E(vib)   ...       0.00 
freq.    3633.85  E(vib)   ...       0.00 

------------
INNER ENERGY
------------

The inner energy is: U= E(el) + E(ZPE) + E(vib) + E(rot) + E(trans)
    E(el)   - is the total energy from the electronic structure calculation
              = E(kin-el) + E(nuc-el) + E(el-el) + E(nuc-nuc)
    E(ZPE)  - the the zero temperature vibrational energy from the frequency calculation
    E(vib)  - the the finite temperature correction to E(ZPE) due to population
              of excited vibrational states
    E(rot)  - is the rotational thermal energy
    E(trans)- is the translational thermal energy

Summary of contributions to the inner energy U:
Electronic energy                ...   -366.56005754 Eh
Zero point energy                ...      0.06774947 Eh      42.51 kcal/mol
Thermal vibrational correction   ...      0.00359426 Eh       2.26 kcal/mol
Thermal rotational correction    ...      0.00141627 Eh       0.89 kcal/mol
Thermal translational correction ...      0.00141627 Eh       0.89 kcal/mol
-----------------------------------------------------------------------
Total thermal energy                   -366.48588127 Eh


Summary of corrections to the electronic energy:
(perhaps to be used in another calculation)
Total thermal correction                  0.00642680 Eh       4.03 kcal/mol
Non-thermal (ZPE) correction              0.06774947 Eh      42.51 kcal/mol
-----------------------------------------------------------------------
Total correction                          0.07417627 Eh      46.55 kcal/mol


--------
ENTHALPY
--------

The enthalpy is H = U + kB*T
                kB is Boltzmann's constant
Total thermal energy              ...   -366.48588127 Eh 
Thermal Enthalpy correction       ...      0.00094421 Eh       0.59 kcal/mol
-----------------------------------------------------------------------
Total Enthalpy                    ...   -366.48493706 Eh


Note: Only C1 symmetry has been detected, increase convergence thresholds 
      if your molecule has a higher symmetry. Symmetry factor of 1.0 is   
      used for the rotational entropy correction. 
 

Note: Rotational entropy computed according to Herzberg 
Infrared and Raman Spectra, Chapter V,1, Van Nostrand Reinhold, 1945 
Point Group:  C1, Symmetry Number:   1  
Rotational constants in cm-1:     0.288303     0.065142     0.056266 

Vibrational entropy computed according to the QRRHO of S. Grimme
Chem.Eur.J. 2012 18 9955 using a reference frequency of 100.0 cm-1


-------
ENTROPY
-------

The entropy contributions are T*S = T*(S(el)+S(vib)+S(rot)+S(trans))
     S(el)   - electronic entropy
     S(vib)  - vibrational entropy
     S(rot)  - rotational entropy
     S(trans)- translational entropy
The entropies will be listed as multiplied by the temperature to get
units of energy

Electronic entropy                ...      0.00000000 Eh      0.00 kcal/mol
Vibrational entropy               ...      0.00624081 Eh      3.92 kcal/mol
Rotational entropy                ...      0.01274585 Eh      8.00 kcal/mol
Translational entropy             ...      0.01873862 Eh     11.76 kcal/mol
-----------------------------------------------------------------------
Final entropy term                ...      0.03772528 Eh     23.67 kcal/mol

In case the symmetry of your molecule has not been determined correctly
or in case you have a reason to use a different symmetry number we print 
out the resulting rotational entropy values for sn=1,12:

 non-linear molecules -----------------------------------
|  sn= 1 | S(rot)=       0.01274585 Eh      8.00 kcal/mol|
|  sn= 2 | S(rot)=       0.01209139 Eh      7.59 kcal/mol|
|  sn= 3 | S(rot)=       0.01170856 Eh      7.35 kcal/mol|
|  sn= 4 | S(rot)=       0.01143694 Eh      7.18 kcal/mol|
|  sn= 5 | S(rot)=       0.01122625 Eh      7.04 kcal/mol|
|  sn= 6 | S(rot)=       0.01105410 Eh      6.94 kcal/mol|
|  sn= 7 | S(rot)=       0.01090856 Eh      6.85 kcal/mol|
|  sn= 8 | S(rot)=       0.01078248 Eh      6.77 kcal/mol|
|  sn= 9 | S(rot)=       0.01067127 Eh      6.70 kcal/mol|
|  sn=10 | S(rot)=       0.01057179 Eh      6.63 kcal/mol|
|  sn=11 | S(rot)=       0.01048180 Eh      6.58 kcal/mol|
|  sn=12 | S(rot)=       0.01039965 Eh      6.53 kcal/mol|
 linear molecules ---------------------------------------
|  Dinfh | S(rot)=       0.00804284 Eh      5.05 kcal/mol|
|  Cinfv | S(rot)=       0.00869730 Eh      5.46 kcal/mol|
 --------------------------------------------------------


-------------------
GIBBS FREE ENERGY
-------------------

The Gibbs free energy is G = H - T*S

Total enthalpy                    ...   -366.48493706 Eh 
Total entropy correction          ...     -0.03772528 Eh    -23.67 kcal/mol
-----------------------------------------------------------------------
Final Gibbs free energy         ...   -366.52266234 Eh

For completeness - the Gibbs free energy minus the electronic energy
G-E(el)                           ...      0.03739520 Eh     23.47 kcal/mol


Maximum memory used throughout the entire PROP-calculation: 46.5 MB

--------------------------------
SUGGESTED CITATIONS FOR THIS RUN
--------------------------------

Below you find a list of papers that are relevant to this ORCA run
We neither can nor want to force you to cite these papers, but we appreciate if you do
You receive ORCA, which is the product of decades of hard work by many enthusiastic individuals, for free
The only thing we kindly ask in return is that you cite our papers,
We deeply appreciate it, if you show your appreciation for ORCA by not just citing the generic ORCA reference.

Please note that relegating all ORCA citations to the supporting information does *not* help us.
SI sections are not indexed - citations you put there will not count into any citation statistics
But we need these citations in order to attract the funding resources that allow us to do what we are doing

Therefore, if you are a happy ORCA user, please consider citing a few of the papers listed below in the main body of your paper

In addition to the list printed below, the program has created the file 3_3_difluoropropanoic_acid_defluorinated.bibtex that contains the list in bibtex format
You can import this file easily into all common literature databanks and citation aid programs


List of essential papers. We consider these as the minimum necessary citations

  1. Neese, F.
     Software update: the ORCA program system, version 6.0
     WIRES Comput. Molec. Sci. 2025 15(1), e70019
     doi.org/10.1002/wcms.7019

List of papers to cite with high priority. The work reported in these papers was absolutely
necessary for this run to complete.
Our perspective: the developers of density functionals and basis sets usually get cited in chemistry papers
Good! But without the algorithms to do something with them, the functionals or basis sets would not do anything.
Hence, in our opinion, the algorithm design and method developments papers are equally worthy of getting cited

  1. Neese, F.
     An improvement of the resolution of the identity approximation for the formation of the Coulomb matrix
     J. Comp. Chem. 2003 24(14), 1740-1747
     doi.org/10.1002/jcc.10318
  2. Bykov, D.; Petrenko, T.; Izsak, R.; Kossmann, S.; Becker, U.; Valeev, E.; Neese, F.
     Efficient implementation of the analytic second derivatives of Hartree-Fock and hybrid DFT energies: a detailed analysis of different approximations
     Molec. Phys. 2015 113 , 1961-1977
     doi.org/10.1080/00268976.2015.1025114
  3. Caldeweyher, E.; Bannwarth, C.; Grimme, S.
     Extension of the D3 dispersion coefficient model
     J. Chem. Phys. 2017 147 , 034112
     doi.org/10.1063/1.4993215
  4. Caldeweyher, E.; Ehlert, S.; Hansen, A.; Neugebauer, H.; Spicher, S.; Bannwarth, C.; Grimme, S.
     A generally applicable atomic-charge dependent London dispersion correction
     J. Chem. Phys. 2019 150 , 154122
     doi.org/10.1063/1.5090222
  5. Garcia-Rates, M.; Neese, F.
     Efficient implementation of the analytical second derivatives of hartree-fock and hybrid DFT energies within the framework of the conductor-like polarizable continuum model
     J. Comput. Chem. 2019 40 , 1816-1828
     doi.org/10.1002/jcc.25833
  6. Caldeweyher, E.; Mewes, J.; Ehlert, S.; Grimme, S.
     Extension and evaluation of the D4 London-dispersion model for periodic systems
     Phys. Chem. Chem. Phys. 2020 22(16), 8499-8512
     doi.org/10.1039/D0CP00502A
  7. Garcia-Rates, M.; Neese, F.
     Effect of the Solute Cavity on the Solvation Energy and its Derivatives within the Framework of the Gaussian Charge Scheme
     J. Comput. Chem. 2020 41 , 922-939
     doi.org/10.1002/jcc.26139
  8. Neese, F.
     The SHARK Integral Generation and Digestion System
     J. Comp. Chem. 2022 44(3), 381
     doi.org/10.1002/jcc.26942
  9. Wittmann, L.; Gordiy, I.; Friede, M.; Helmich-Paris, B.; Grimme, S.; Hansen, A.; Bursch, M.
     Extension of the D3 and D4 London Dispersion Corrections to the full Actinides Series
     Phys. Chem. Chem. Phys. 2024 26(32), 21379-21394
     doi.org/10.1039/D4CP01514B

List of suggested additional citations. These are papers that are important in the 'surrounding' of 
of this run, or papers that preceded the highly important papers. If you like your results we are grateful for a citation.

  1. Neese, F.
     The ORCA program system
     WIRES Comput. Molec. Sci. 2012 2(1), 73-78
     doi.org/10.1002/wcms.81
  2. Neese, F.
     Software update: the ORCA program system, version 4.0
     WIRES Comput. Molec. Sci. 2018 8(1), 1-6
     doi.org/10.1002/wcms.1327
  3. Neese, F.; Wennmohs, F.; Becker, U.; Riplinger, C.
     The ORCA quantum chemistry program package
     J. Chem. Phys. 2020 152(22), 224108
     doi.org/10.1063/5.0004608
  4. Neese, F.
     Software update: The ORCA program system—Version 5.0
     WIRES Comput. Molec. Sci. 2022 12(1), e1606
     doi.org/10.1002/wcms.1606

List of optional additional citations

  1. Neese, F.
     Approximate second-order SCF convergence for spin unrestricted wavefunctions
     Chem. Phys. Lett. 2000 325(1-3), 93-98
     doi.org/10.1016/s0009-2614(00)00662-x

Timings for individual modules:

Sum of individual times          ...      653.846 sec (=  10.897 min)
Startup calculation              ...       11.852 sec (=   0.198 min)   1.8 %
SCF iterations                   ...      292.267 sec (=   4.871 min)  44.7 %
Property integrals               ...       95.005 sec (=   1.583 min)  14.5 %
SCF Response                     ...       54.724 sec (=   0.912 min)   8.4 %
Property calculations            ...       50.583 sec (=   0.843 min)   7.7 %
SCF Gradient evaluation          ...      149.350 sec (=   2.489 min)  22.8 %
Geometry relaxation              ...        0.065 sec (=   0.001 min)   0.0 %
                             ****ORCA TERMINATED NORMALLY****
TOTAL RUN TIME: 0 days 0 hours 10 minutes 55 seconds 777 msec
