
                                 *****************
                                 * O   R   C   A *
                                 *****************

                                            #,                                       
                                            ###                                      
                                            ####                                     
                                            #####                                    
                                            ######                                   
                                           ########,                                 
                                     ,,################,,,,,                         
                               ,,#################################,,                 
                          ,,##########################################,,             
                       ,#########################################, ''#####,          
                    ,#############################################,,   '####,        
                  ,##################################################,,,,####,       
                ,###########''''           ''''###############################       
              ,#####''   ,,,,##########,,,,          '''####'''          '####       
            ,##' ,,,,###########################,,,                        '##       
           ' ,,###''''                  '''############,,,                           
         ,,##''                                '''############,,,,        ,,,,,,###''
      ,#''                                            '''#######################'''  
     '                                                          ''''####''''         
             ,#######,   #######,   ,#######,      ##                                
            ,#'     '#,  ##    ##  ,#'     '#,    #''#        ,####,    ,#,          
            ##       ##  ##   ,#'  ##            #'  '#       #'       ,# #          
            ##       ##  #######   ##           ,######,      #####,      #          
            '#,     ,#'  ##    ##  '#,     ,#' ,#      #,     #,   #      #          
             '#######'   ##     ##  '#######'  #'      '#     '####' #    #          



                #########################################################
                #                        -***-                          #
                #          Department of theory and spectroscopy        #
                #                                                       #
                #                      Frank Neese                      #
                #                                                       #
                #     Directorship, Architecture, Infrastructure        #
                #                    SHARK, DRIVERS                     #
                #        Core code/Algorithms in most modules           #
                #                                                       #
                #        Max Planck Institute fuer Kohlenforschung      #
                #                Kaiser Wilhelm Platz 1                 #
                #                 D-45470 Muelheim/Ruhr                 #
                #                      Germany                          #
                #                                                       #
                #                  All rights reserved                  #
                #                        -***-                          #
                #########################################################


                         Program Version 6.1.0  -  RELEASE   -
                                (GIT: $679e74b$)
                          ($2025-06-10 18:02:51 +0200$)


 With contributions from (in alphabetic order):
[Max-Planck-Institut fuer Kohlenforschung]                               
  Daniel Aravena         : Magnetic Suceptibility                        
  Michael Atanasov       : Ab Initio Ligand Field Theory (pilot matlab implementation)
  Alexander A. Auer      : GIAO ZORA, VPT2 properties, NMR spectrum      
  Ute Becker             : All parallelization in ORCA, NUMFREQ, NUMCALC 
  Giovanni Bistoni       : ED, misc. LED, open-shell LED, HFLD           
  Dmytro Bykov           : pre 5.0 version of the SCF Hessian            
  Marcos Casanova-Páez   : Triplet and SCS-CIS(D). UHF-(DLPNO)-IP/EA/STEOM-CCSD. UHF-CVS-IP/STEOM-CCSD   
  Vijay G. Chilkuri      : MRCI spin determinant printing, contributions to CSF-ICE 
  Pauline Colinet        : FMM embedding                                 
  Dipayan Datta          : RHF DLPNO-CCSD density                        
  Achintya Kumar Dutta   : EOM-CC, STEOM-CC                              
  Nicolas Foglia         : Exact transition moments, OPA infrastructure, MCD improvements    
  Dmitry Ganyushin       : Spin-Orbit,Spin-Spin,Magnetic field MRCI      
  Miquel Garcia-Rates    : C-PCM and meta-GGA Hessian, CCSD/C-PCM, Gaussian charge scheme 
  Tiago L. C. Gouveia    : GS-ROHF, GS-ROCIS                             
  Yang Guo               : DLPNO-NEVPT2, F12-NEVPT2, CIM, IAO-localization        
  Andreas Hansen         : Spin unrestricted coupled pair/coupled cluster methods 
  Ingolf Harden          : AUTO-CI MPn and infrastructure                
  Benjamin Helmich-Paris : MC-RPA, TRAH-(SCF,CASSCF), AVAS, COSX integrals, SCF dyn. polar., MC-PDFT, srDFT 
  Lee Huntington         : MR-EOM, pCC                                   
  Robert Izsak           : Overlap fitted RIJCOSX, COSX-SCS-MP3, EOM     
  Riya Kayal             : Wick's Theorem for AUTO-CI, AUTO-CI UHF-CCSDT 
  Emily Kempfer          : AUTO-CI RHF CISDT and CCSDT, approximate NEVPT4
  Christian Kollmar      : KDIIS, OOCD, Brueckner-CCSD(T), CCSD density, CASPT2, CASPT2-K, improved NEVPT2 
  Axel Koslowski         : Symmetry handling                             
  Simone Kossmann        : meta-GGA functionals, TD-DFT gradient, OOMP2, (MP2 Hessian; deprecated post 5.0) 
  Lucas Lang             : DCDCAS, Hyperfine gauge corrections, ICE-SOC+SSC
  Marvin Lechner         : AUTO-CI (C++ implementation), FIC-MRCC        
  Spencer Leger          : CASSCF response                               
  Dagmar Lenk            : GEPOL surface, SMD, ORCA-2-JSON               
  Dimitrios Liakos       : Extrapolation schemes; Compound Job, Property file
  Dimitrios Manganas     : Further ROCIS development; embedding schemes. LFT, Crystal Embedding 
  Dimitrios Pantazis     : SARC Basis sets                               
  Anastasios Papadopoulos: AUTO-CI, single reference methods and gradients 
  Taras Petrenko         : pre 6.0 DFT Hessian and TD-DFT gradient,  ECA, NRVS 
  Petra Pikulova         : Analytic Raman intensities                    
  Peter Pinski           : DLPNO-MP2, DLPNO-MP2 Gradient                 
  Shashank Vittal Rao    : ES-AILFT, MagRelax                            
  Christoph Reimann      : Effective Core Potentials                     
  Marius Retegan         : Local ZFS, SOC                                
  Christoph Riplinger    : Optimizer, TS searches, QM/MM, DLPNO-CCSD(T), (RO)-DLPNO pert. Triples 
  Michael Roemelt        : Original ROCIS implementation, recursive CI coupling coefficients
  Masaaki Saitow         : Open-shell DLPNO-CCSD energy and density      
  Barbara Sandhoefer     : DKH picture change effects                    
  Yorick L. A. Schmerwitz: GMF and freeze-and-release deltaSCF, NEB S-IDPP initial path                    
  Kantharuban Sivalingam : CASSCF convergence/infrastructure, NEVPT2, NEVPT3, NEVPT4(SD), FIC-MRCI and CEPA variants
  Bernardo de Souza      : ESD, SOC TD-DFT                               
  Georgi L. Stoychev     : AutoAux, RI-MP2 NMR, DLPNO-MP2 response, X2C  
  Van Anh Tran           : RI-MP2 g-tensors                              
  Willem Van den Heuvel  : Paramagnetic NMR                              
  Zikuan Wang            : NOTCH, Electric field optimization            
  Frank Wennmohs         : Technical directorship and infrastructure     
  Hang Xu                : AUTO-CI-Response properties                   
                                                                         
[FACCTs GmbH]                                                            
  Markus Bursch, Nicolas Foglia, Miquel Garcia-Rates, Ingolf Harden, Hagen Neugebauer, Anastasios Papadopoulos, 
  Christoph Riplinger, Bernardo de Souza, Georgi L. Stoychev                                                    
                                                                 
  APM, various basis sets, CI-OPT, improved COSX, DLPNO-Multilevel,           
  DOCKER, DRACO, updates on ESD, Fragmentator, GOAT, IRC, LR-CPCM, L-BFGS, MBIS, meta-GGA TD-DFT gradient, ML-optimized integration grids, 
  MM, NACMEs, nearIR, NEB, NEB-TS, NL-DFT gradient (VV10), 2- and 3-layer-ONIOM, interface openCOSMO-RS, QMMM,   
  Crystal-QMMM, RESP, rigid body optimization, SF, symmetry and pop. for TD-DFT, various functionals, SOLVATOR                                   
                                                                         
[Other institutions]                                                     
  V. Asgeirsson          : NEB                                           
  Christoph Bannwarth    : sTDA-DFT, sTD-DFT, PBEh-3c, B97-3c, D3        
  Giovanni Bistoni       : ETS/NOCV, ADLD/ADEX, COVALED                  
  Martin Brehm           : Molecular dynamics                            
  Ronald Cardenas        : ETS/NOCV                                      
  Martina Colucci        : COVALED                                       
  Sebastian Ehlert       : rSCAN, r2SCAN, r2SCAN-3c, D4, dhf basis sets  
  Marvin Friede          : D4 for Fr, Ra, Ac-Lr                          
  Lars Goerigk           : TD-DFT with DH, B97 family of functionals     
  Stefan Grimme          : VdW corrections, initial TS optimization, DFT functionals, gCP, sTDA/sTD-DF 
  Waldemar Hujo          : DFT-NL                                        
  H. Jonsson             : NEB                                           
  Holger Kruse           : gCP                                           
  Marcel Mueller         : wB97X-3c, vDZP basis set                      
  Hagen Neugebauer       : wr2SCAN, Native XTB                           
  Gianluca Regni         : ADLD/ADEX                                     
  Tobias Risthaus        : pre 6.0 range-separated hybrid DFT and stability analysis
  Lukas Wittmann         : regularized MP2, r2SCAN double-hybrids, wr2SCAN        
                                                                         
We gratefully acknowledge several colleagues who have allowed us to      
interface, adapt or use parts of their codes:                            
  Ed Valeev, F. Pavosevic, A. Kumar             : LibInt (2-el integral package), F12 methods 
  Garnet Chan, S. Sharma, J. Yang, R. Olivares  : DMRG                   
  Ulf Ekstrom                                   : XCFun DFT Library      
  Mihaly Kallay                                 : mrcc  (arbitrary order and MRCC methods)
  Frank Weinhold                                : gennbo (NPA and NBO analysis)           
  Simon Mueller                                 : openCOSMO-RS                            
  Christopher J. Cramer and Donald G. Truhlar   : smd solvation model                     
  S Lehtola, MJT Oliveira, MAL Marques          : LibXC Library                           
  Liviu Ungur et al                             : ANISO software                          


 Your calculation uses the libint2 library for the computation of 2-el integrals
 For citations please refer to: http://libint.valeyev.net

 Your ORCA version has been built with support for libXC version: 7.0.0
 For citations please refer to: https://libxc.gitlab.io

 This ORCA versions uses:
   CBLAS   interface :  Fast vector & matrix operations
   LAPACKE interface :  Fast linear algebra routines
   SCALAPACK package :  Parallel linear algebra routines
   Shared memory     :  Shared parallel matrices
   BLAS/LAPACK       :  OpenBLAS 0.3.29  USE64BITINT DYNAMIC_ARCH NO_AFFINITY Zen SINGLE_THREADED
        Core in use  :  Zen
   Copyright (c) 2011-2014, The OpenBLAS Project


  ***********************************
  * Starting time: Wed Nov 26 23:08:31 2025
  * Host name:     twstudio
  * Process ID:    96961
  * Working dir.:  /mnt/sda3/data1/Studium-PC/PFAS-Breaker/C-F-Bonds_Gibbs/IonicFluorination
  ***********************************

Your calculation utilizes the atom-pairwise dispersion correction
based on EEQ partial charges (D4)


Your calculation utilizes the SMD solvation module
Please cite in your paper:
Marenich, A. V.; Cramer, C. J.; Truhlar, D. G. J. Phys. Chem. B 2009, 113, 6378 

Warning: RI is on but no J-basis has been assigned. Assigning Def2/J (nothing to worry about!)
================================================================================

----- Orbital basis set information -----
Your calculation utilizes the basis: def2-TZVPP
   F. Weigend and R. Ahlrichs, Phys. Chem. Chem. Phys. 7, 3297 (2005).

----- AuxJ basis set information -----
Your calculation utilizes the auxiliary basis: def2/J
   H-Rn: F. Weigend, Phys. Chem. Chem. Phys. 8, 1057 (2006).
   Fr-Lr: K. Eichkorn, F. Weigend, O. Treutler, R. Ahlrichs; Theor. Chem. Acc. 97, 119 (1997).

================================================================================
                                        WARNINGS
                       Please study these warnings very carefully!
================================================================================


WARNING: Geometry Optimization
  ===> : Switching off AutoStart
         For restart on a previous wavefunction, please use MOREAD

================================================================================
                                       INPUT FILE
================================================================================
NAME = 3_3_3_2_2_pentafluoropropanoic_acid_defluorinated.inp
|  1> !PBE D4 def2-TZVPP OPT FREQ SMD(WATER)
|  2> 
|  3> %scf
|  4> MaxCore 28672
|  5> end
|  6> 
|  7> * xyz 1 1
|  8> C     -6.38842    0.63306    0.20118
|  9> C     -5.17062    1.55299    0.07546
| 10> O     -2.79873    1.58341   -0.63306
| 11> F     -4.90086    2.13597    1.30137
| 12> F     -7.47199    1.37004    0.64127
| 13> C     -3.92542    0.86778   -0.43596
| 14> H     -2.76550    2.53364   -0.45408
| 15> F     -6.13502   -0.37993    1.10940
| 16> O     -3.91893   -0.32936   -0.67856
| 17> F     -6.69665    0.08222   -1.02969
| 18> *
| 19> 
| 20>                          ****END OF INPUT****
================================================================================

                       *****************************
                       * Geometry Optimization Run *
                       *****************************

Geometry optimization settings:
Update method            Update   .... BFGS
Choice of coordinates    CoordSys .... (2022) Redundant Internals
Initial Hessian          InHess   .... Almloef's Model
Max. no of cycles        MaxIter  .... 50

Convergence Tolerances:
Energy Change            TolE     ....  5.0000e-06 Eh
Max. Gradient            TolMAXG  ....  3.0000e-04 Eh/bohr
RMS Gradient             TolRMSG  ....  1.0000e-04 Eh/bohr
Max. Displacement        TolMAXD  ....  4.0000e-03 bohr
RMS Displacement         TolRMSD  ....  2.0000e-03 bohr
Strict Convergence                .... False

------------------------------------------------------------------------------
                        ORCA OPTIMIZATION COORDINATE SETUP
------------------------------------------------------------------------------

The optimization will be done in redundant internal coordinates (2022)
Making redundant internal coordinates   ...  (2022 redundants) done
Evaluating the initial hessian          ...  (Almloef) done
Evaluating the coordinates              ...  done
Calculating the B-matrix                .... done
Calculating the G-matrix                .... done
The number of degrees of freedom        ....   33

    -----------------------------------------------------------------
                    Redundant Internal Coordinates


    -----------------------------------------------------------------
         Definition                    Initial Value    Approx d2E/dq
    -----------------------------------------------------------------
      1. B(C   1,C   0)                  1.5314         0.371691   
      2. B(F   3,C   1)                  1.3840         0.531519   
      3. B(F   4,C   0)                  1.3824         0.534740   
      4. B(C   5,O   2)                  1.3492         0.650027   
      5. B(C   5,C   1)                  1.5105         0.401330   
      6. B(H   6,O   2)                  0.9675         0.505808   
      7. B(F   7,C   0)                  1.3839         0.531708   
      8. B(O   8,C   5)                  1.2215         1.039251   
      9. B(F   9,C   0)                  1.3833         0.532946   
     10. A(C   1,C   0,F   4)          109.2213         0.382120   
     11. A(F   4,C   0,F   7)          108.9554         0.402486   
     12. A(F   4,C   0,F   9)          108.7185         0.402651   
     13. A(F   7,C   0,F   9)          109.4679         0.402248   
     14. A(C   1,C   0,F   9)          110.0818         0.381897   
     15. A(C   1,C   0,F   7)          110.3638         0.381743   
     16. A(C   0,C   1,C   5)          114.2584         0.367519   
     17. A(C   0,C   1,F   3)          109.5920         0.381719   
     18. A(F   3,C   1,C   5)          109.2872         0.386847   
     19. A(C   5,O   2,H   6)          121.5058         0.371373   
     20. A(O   2,C   5,O   8)          119.1027         0.474610   
     21. A(C   1,C   5,O   2)          119.8185         0.402480   
     22. A(C   1,C   5,O   8)          121.0787         0.437606   
     23. D(F   3,C   1,C   0,F   7)    -61.2110         0.010339   
     24. D(C   5,C   1,C   0,F   4)   -178.4304         0.010339   
     25. D(F   3,C   1,C   0,F   4)     58.5481         0.010339   
     26. D(C   5,C   1,C   0,F   7)     61.8105         0.010339   
     27. D(F   3,C   1,C   0,F   9)    177.8446         0.010339   
     28. D(O   2,C   5,C   1,F   3)    -59.0604         0.011071   
     29. D(O   2,C   5,C   1,C   0)    177.7531         0.011071   
     30. D(C   1,C   5,O   2,H   6)     -0.0002         0.031228   
     31. D(O   8,C   5,C   1,F   3)    121.0706         0.011071   
     32. D(O   8,C   5,O   2,H   6)    179.8714         0.031228   
     33. D(O   8,C   5,C   1,C   0)     -2.1159         0.011071   
    -----------------------------------------------------------------

Number of atoms                         .... 10
Number of degrees of freedom            .... 33


         *************************************************************
         *                GEOMETRY OPTIMIZATION CYCLE   1            *
         *************************************************************
---------------------------------
CARTESIAN COORDINATES (ANGSTROEM)
---------------------------------
  C     -6.388420    0.633060    0.201180
  C     -5.170620    1.552990    0.075460
  O     -2.798730    1.583410   -0.633060
  F     -4.900860    2.135970    1.301370
  F     -7.471990    1.370040    0.641270
  C     -3.925420    0.867780   -0.435960
  H     -2.765500    2.533640   -0.454080
  F     -6.135020   -0.379930    1.109400
  O     -3.918930   -0.329360   -0.678560
  F     -6.696650    0.082220   -1.029690

----------------------------
CARTESIAN COORDINATES (A.U.)
----------------------------
  NO LB      ZA    FRAG     MASS         X           Y           Z
   0 C     6.0000    0    12.011  -12.072364    1.196310    0.380175
   1 C     6.0000    0    12.011   -9.771056    2.934726    0.142599
   2 O     8.0000    0    15.999   -5.288833    2.992211   -1.196310
   3 F     9.0000    0    18.998   -9.261283    4.036398    2.459233
   4 F     9.0000    0    18.998  -14.120015    2.589000    1.211825
   5 C     6.0000    0    12.011   -7.417969    1.639867   -0.823845
   6 H     1.0000    0     1.008   -5.226038    4.787886   -0.858087
   7 F     9.0000    0    18.998  -11.593508   -0.717964    2.096462
   8 O     8.0000    0    15.999   -7.405704   -0.622400   -1.282293
   9 F     9.0000    0    18.998  -12.654835    0.155373   -1.945832

--------------------------------
INTERNAL COORDINATES (ANGSTROEM)
--------------------------------
 C      0   0   0     0.000000000000     0.00000000     0.00000000
 C      1   0   0     1.531376362394     0.00000000     0.00000000
 O      2   1   0     2.475638935487   142.44634589     0.00000000
 F      2   1   3     1.384012812838   109.59202633   235.23555276
 F      1   2   3     1.382368501305   109.22129977   183.31254592
 C      3   2   1     1.349223874307    31.96240687   356.63801976
 H      3   2   1     0.967509755093    89.54341416   176.63786401
 F      1   2   3     1.383916134923   110.36375512    63.55340447
 O      6   3   2     1.221491326085   119.10271258   179.87162764
 F      1   2   3     1.383282832757   110.08180621   302.60900744

---------------------------
INTERNAL COORDINATES (A.U.)
---------------------------
 C      0   0   0     0.000000000000     0.00000000     0.00000000
 C      1   0   0     2.893881932886     0.00000000     0.00000000
 O      2   1   0     4.678279594543   142.44634589     0.00000000
 F      2   1   3     2.615405182102   109.59202633   235.23555276
 F      1   2   3     2.612297883625   109.22129977   183.31254592
 C      3   2   1     2.549663615788    31.96240687   356.63801976
 H      3   2   1     1.828328469023    89.54341416   176.63786401
 F      1   2   3     2.615222487319   110.36375512    63.55340447
 O      6   3   2     2.308284081260   119.10271258   179.87162764
 F      1   2   3     2.614025719665   110.08180621   302.60900744

---------------------
BASIS SET INFORMATION
---------------------
There are 4 groups of distinct atoms

 Group   1 Type C   : 11s6p2d1f contracted to 5s3p2d1f pattern {62111/411/11/1}
 Group   2 Type O   : 11s6p2d1f contracted to 5s3p2d1f pattern {62111/411/11/1}
 Group   3 Type F   : 11s6p2d1f contracted to 5s3p2d1f pattern {62111/411/11/1}
 Group   4 Type H   : 5s2p1d contracted to 3s2p1d pattern {311/11/1}

Atom   0C    basis set group =>   1
Atom   1C    basis set group =>   1
Atom   2O    basis set group =>   2
Atom   3F    basis set group =>   3
Atom   4F    basis set group =>   3
Atom   5C    basis set group =>   1
Atom   6H    basis set group =>   4
Atom   7F    basis set group =>   3
Atom   8O    basis set group =>   2
Atom   9F    basis set group =>   3
---------------------------------
AUXILIARY/J BASIS SET INFORMATION
---------------------------------
There are 4 groups of distinct atoms

 Group   1 Type C   : 12s5p4d2f1g contracted to 6s4p3d1f1g pattern {711111/2111/211/2/1}
 Group   2 Type O   : 12s5p4d2f1g contracted to 6s4p3d1f1g pattern {711111/2111/211/2/1}
 Group   3 Type F   : 12s5p4d2f1g contracted to 6s4p3d1f1g pattern {711111/2111/211/2/1}
 Group   4 Type H   : 5s2p1d contracted to 3s1p1d pattern {311/2/1}

Atom   0C    basis set group =>   1
Atom   1C    basis set group =>   1
Atom   2O    basis set group =>   2
Atom   3F    basis set group =>   3
Atom   4F    basis set group =>   3
Atom   5C    basis set group =>   1
Atom   6H    basis set group =>   4
Atom   7F    basis set group =>   3
Atom   8O    basis set group =>   2
Atom   9F    basis set group =>   3
------------------------------------------------------------------------------
                             ORCA STARTUP CALCULATIONS
                           -- RI-GTO INTEGRALS CHOSEN --
------------------------------------------------------------------------------
------------------------------------------------------------------------------
                   ___                                                        
                  /   \      - P O W E R E D   B Y -                         
                 /     \                                                     
                 |  |  |   _    _      __       _____    __    __             
                 |  |  |  | |  | |    /  \     |  _  \  |  |  /  |          
                  \  \/   | |  | |   /    \    | | | |  |  | /  /          
                 / \  \   | |__| |  /  /\  \   | |_| |  |  |/  /          
                |  |  |   |  __  | /  /__\  \  |    /   |      \           
                |  |  |   | |  | | |   __   |  |    \   |  |\   \          
                \     /   | |  | | |  |  |  |  | |\  \  |  | \   \       
                 \___/    |_|  |_| |__|  |__|  |_| \__\ |__|  \__/        
                                                                              
                      - O R C A' S   B I G   F R I E N D -                    
                                      &                                       
                       - I N T E G R A L  F E E D E R -                       
                                                                              
 v1 FN, 2020, v2 2021, v3 2022-2024                                           
------------------------------------------------------------------------------


----------------------
SHARK INTEGRAL PACKAGE
----------------------

Number of atoms                             ...     10
Number of basis functions                   ...    293
Number of shells                            ...    105
Maximum angular momentum                    ...      3
Integral batch strategy                     ... SHARK/LIBINT Hybrid
RI-J (if used) integral strategy            ... SPLIT-RIJ (Revised 2003 algorithm where possible)
Printlevel                                  ...      1
Contraction scheme used                     ... SEGMENTED contraction
Prescreening option                         ... SCHWARTZ
   Thresh                                   ... 2.500e-11
   Tcut                                     ... 2.500e-12
   Tpresel                                  ... 2.500e-12 
Coulomb Range Separation                    ... NOT USED
Exchange Range Separation                   ... NOT USED
Multipole approximations                    ... NOT USED
Finite Nucleus Model                        ... NOT USED
CABS basis                                  ... NOT available
Auxiliary Coulomb fitting basis             ... AVAILABLE
   # of basis functions in Aux-J            ...    452
   # of shells in Aux-J                     ...    140
   Maximum angular momentum in Aux-J        ...      4
Auxiliary J/K fitting basis                 ... NOT available
Auxiliary Correlation fitting basis         ... NOT available
Auxiliary 'external' fitting basis          ... NOT available

Checking pre-screening integrals            ... done (  0.0 sec) Dimension = 105
   => SHARK Basis and OBASIS are compatible. Storing Pre-screening
Shell pair information
Shell pair cut-off parameter TPreSel        ...   2.5e-12
Total number of shell pairs                 ...      5565
Shell pairs after pre-screening             ...      4818
Total number of primitive shell pairs       ...     17967
Primitive shell pairs kept                  ...     11133
          la=0 lb=0:    933 shell pairs
          la=1 lb=0:   1252 shell pairs
          la=1 lb=1:    419 shell pairs
          la=2 lb=0:    759 shell pairs
          la=2 lb=1:    506 shell pairs
          la=2 lb=2:    163 shell pairs
          la=3 lb=0:    349 shell pairs
          la=3 lb=1:    245 shell pairs
          la=3 lb=2:    152 shell pairs
          la=3 lb=3:     40 shell pairs

Checking whether 4 symmetric matrices of dimension 293 fit in memory
:Max Core in MB      =  28672.00
 MB in use           =      9.55
 MB left             =  28662.45
 MB needed           =      1.31
 Data fit in memory  = YES
Calculating RI/J V-Matrix + Cholesky decomp.... done (  0.0 sec)
Calculating Nuclear repulsion               ... done (  0.0 sec) ENN=    493.982590003417 Eh

Diagonalization of the overlap matrix:
Smallest eigenvalue                        ... 2.327e-04
Time for diagonalization                   ...    0.012 sec
Threshold for overlap eigenvalues          ... 1.000e-07
Number of eigenvalues below threshold      ... 0
Time for construction of square roots      ...    0.006 sec
Total time needed                          ...    0.018 sec

-------------------
DFT GRID GENERATION
-------------------

General Integration Accuracy     IntAcc      ... 4.388
Radial Grid Type                 RadialGrid  ... OptM3 with GC (2021)
Angular Grid (max. ang.)         AngularGrid ... 4 (Lebedev-302)
Angular grid pruning method      GridPruning ... 4 (adaptive)
Weight generation scheme         WeightScheme... mBecke (2022)
Basis function cutoff            BFCut       ... 1.0000e-11
Integration weight cutoff        WCut        ... 1.0000e-14
Partially contracted basis set               ... off
Rotationally invariant grid construction     ... off
Angular grids for H and He will be reduced by one unit

Total number of grid points                  ...    58114
Total number of batches                      ...      914
Average number of points per batch           ...       63
Average number of grid points per atom       ...     5811
Grids setup in   0.5 sec
Initializing property integral containers    ... done (  0.0 sec)

SHARK setup successfully completed in   0.7 seconds

Maximum memory used throughout the entire STARTUP-calculation: 37.7 MB
-------------------------------------------------------------------------------
                                 ORCA GUESS
                   Start orbitals & Density for SCF / CASSCF
-------------------------------------------------------------------------------

------------
SCF SETTINGS
------------
Hamiltonian:
 Density Functional     Method          .... DFT(GTOs)
 Exchange Functional    Exchange        .... PBE
   PBE kappa parameter   XKappa         ....  0.804000
   PBE mue parameter    XMuePBE         ....  0.219520
 Correlation Functional Correlation     .... PBE
   PBE beta parameter  CBetaPBE         ....  0.066725
 LDA part of GGA corr.  LDAOpt          .... PW91-LDA
 Gradients option       PostSCFGGA      .... off
   NL short-range parameter             ....  6.400000
 RI-approximation to the Coulomb term is turned on
   Number of AuxJ basis functions       .... 452


General Settings:
 Integral files         IntName         .... 3_3_3_2_2_pentafluoropropanoic_acid_defluorinated
 Hartree-Fock type      HFTyp           .... RHF
 Total Charge           Charge          ....    1
 Multiplicity           Mult            ....    1
 Number of Electrons    NEL             ....   70
 Basis Dimension        Dim             ....  293
 Nuclear Repulsion      ENuc            ....    493.9825900034 Eh

Convergence Acceleration:
 AO-DIIS                CNVDIIS         .... on
   Start iteration      DIISMaxIt       ....    12
   Startup error        DIISStart       ....  0.200000
   # of expansion vecs  DIISMaxEq       ....     5
   Bias factor          DIISBfac        ....   1.050
   Max. coefficient     DIISMaxC        ....  10.000
 MO-DIIS                CNVKDIIS        .... off
 Trust-Rad. Augm. Hess. CNVTRAH         .... auto
   Auto Start mean grad. ratio tolernc. ....  1.125000
   Auto Start start iteration           ....    50
   Auto Start num. interpolation iter.  ....    10
   Max. Number of Micro iterations      ....    24
   Max. Number of Macro iterations      .... Maxiter - #DIIS iter
   Number of Davidson start vectors     ....     2
   Converg. threshold    (grad. norm)   ....   1.000e-05
   Grad. Scal. Fac. for Micro threshold ....   0.100
   Minimum threshold for Micro iter.    ....   1.000e-02
   NR start threshold (gradient norm)   ....   1.000e-04
   Initial trust radius                 ....   0.400
   Minimum AH scaling param. (alpha)    ....   1.000
   Maximum AH scaling param. (alpha)    .... 1000.000
   Quad. conv. algorithm                .... NR
   White noise on init. David. guess    .... on
   Maximum white noise                  ....   0.010
   Pseudo random numbers                .... off
   Inactive MOs                         .... canonical
   Orbital update algorithm             .... Taylor
   Preconditioner                       .... Diag
   Full preconditioner red. dimension   ....   250
 SOSCF                 CNVSOSCF           .... on
   Start iteration     SOSCFMaxIt         ....   150
   Startup grad/error  SOSCFStart         ....  0.003300
   Hessian update      SOSCFHessUp        .... L-BFGS
   Autom. constraints  SOSCFAutoConstrain .... off
 Level Shifting         CNVShift        .... on
   Level shift para.    LevelShift      ....    0.2500
   Turn off err/grad.   ShiftErr        ....    0.0010
 Zerner damping         CNVZerner       .... off
 Static damping         CNVDamp         .... on
   Fraction old density DampFac         ....    0.7000
   Max. Damping (<1)    DampMax         ....    0.9800
   Min. Damping (>=0)   DampMin         ....    0.0000
   Turn off err/grad.   DampErr         ....    0.1000

SCF Procedure:
 Maximum # iterations   MaxIter         ....   125
 SCF integral mode      SCFMode         .... Direct
   Integral package                     .... SHARK and LIBINT hybrid scheme
 Reset frequency        DirectResetFreq ....    20
 Integral Threshold     Thresh          ....  2.500e-11 Eh
 Primitive CutOff       TCut            ....  2.500e-12 Eh

Convergence Tolerance:
 Convergence Check Mode ConvCheckMode   .... Total+1el-Energy
 Convergence forced     ConvForced      .... 0
 Energy Change          TolE            ....  1.000e-08 Eh
 1-El. energy change                    ....  1.000e-05 Eh
 Orbital Gradient       TolG            ....  1.000e-05
 Orbital Rotation angle TolX            ....  1.000e-05
 DIIS Error             TolErr          ....  5.000e-07

------------------------------
INITIAL GUESS: MODEL POTENTIAL
------------------------------
Loading Hartree-Fock densities                     ... done
Calculating cut-offs                               ... done
Initializing the effective Hamiltonian             ... done
Setting up the integral package (SHARK)            ... done
Starting the Coulomb interaction                   ... done (   0.2 sec)
Making the grid                                    ... done (   0.1 sec)
Mapping shells                                     ... done
Starting the XC term evaluation                    ... done (   0.2 sec)
  promolecular density results
     # of electrons  =     70.998723867
     EX              =    -71.855506298
     EC              =     -2.448161008
     EX+EC           =    -74.303667305
Transforming the Hamiltonian                       ... done (   0.0 sec)
Diagonalizing the Hamiltonian                      ... done (   0.0 sec)
Back transforming the eigenvectors                 ... done (   0.0 sec)
Now organizing SCF variables                       ... done
                      ------------------
                      INITIAL GUESS DONE (   0.6 sec)
                      ------------------
             **** ENERGY FILE WAS UPDATED (3_3_3_2_2_pentafluoropropanoic_acid_defluorinated.en.tmp) ****
Finished Guess after   0.7 sec
Maximum memory used throughout the entire GUESS-calculation: 25.1 MB

-------------------------------------------------------------------------------------------
                                      ORCA LEAN-SCF
                              memory conserving SCF solver
-------------------------------------------------------------------------------------------

--------------------
CPCM SOLVATION MODEL
--------------------
CPCM parameters:
  Epsilon                                         ...      78.3550
  Refrac                                          ...       1.3328
  Rsolv                                           ...       1.3000
  Surface type                                    ... GAUSSIAN VDW
  Discretization scheme                           ... Constant charge density
    Threshold for H atoms                         ...       5.0000 (charges/Ang^2)
    Threshold for non-H atoms                     ...       5.0000 (charges/Ang^2)
  Epsilon function type                           ...         CPCM
Solvent:                                          ... WATER
SMD-CDS solvent descriptors:
  Soln                                            ...       1.3328
  Soln25                                          ...       1.3323
  Sola                                            ...       0.0000
  Solb                                            ...       0.0000
  Solg                                            ...       0.0000
  Solc                                            ...       0.0000
  Solh                                            ...       0.0000
Radii:
  Scheme                                          ... Element-dependent radii
  Radius for C  used is    3.4960 Bohr (=   1.8500 Ang.)
  Radius for O  used is    2.8724 Bohr (=   1.5200 Ang.)
  Radius for F  used is    3.2692 Bohr (=   1.7300 Ang.)
  Radius for H  used is    2.2677 Bohr (=   1.2000 Ang.)
Calculating surface                               ...        done! (  0.0s)
Cavity surface points                             ...          947
Cavity Volume                                     ...     764.2077
Cavity Surface-area                               ...     494.1634
Calculating surface distance matrix               ...        done! (  0.0s)
Performing Cholesky decomposition & store         ...        done! (  0.0s)
Overall time for CPCM initialization              ...                 0.0s

----------------------------------------D-I-I-S--------------------------------------------
Iteration    Energy (Eh)           Delta-E    RMSDP     MaxDP     DIISErr   Damp  Time(sec)
-------------------------------------------------------------------------------------------
               ***  Starting incremental Fock matrix formation  ***
    1    -663.7379154686127549     0.00e+00  2.15e-03  1.07e-01  2.51e-01  0.700   1.9
Warning: op=0 Small HOMO/LUMO gap (  -0.025) - skipping pre-diagonalization
         Will do a full diagonalization
    2    -663.9089533073608891    -1.71e-01  7.92e-04  2.55e-02  5.43e-02  0.700   1.8
                               ***Turning on AO-DIIS***
    3    -663.9420918432319922    -3.31e-02  3.48e-04  1.23e-02  4.12e-02  0.700   1.7
    4    -663.9718488005153176    -2.98e-02  6.82e-04  2.56e-02  3.86e-02  0.000   1.7
    5    -664.0480521897065955    -7.62e-02  2.72e-04  7.78e-03  1.97e-02  0.000   1.7
    6    -664.0498722693655509    -1.82e-03  1.72e-04  5.77e-03  1.60e-02  0.000   1.7
    7    -664.0506161833272927    -7.44e-04  1.07e-04  3.08e-03  7.63e-03  0.000   1.7
    8    -664.0508338558352079    -2.18e-04  7.85e-05  2.52e-03  8.50e-03  0.000   1.7
                              *** Initializing SOSCF ***
---------------------------------------S-O-S-C-F--------------------------------------
Iteration    Energy (Eh)           Delta-E    RMSDP     MaxDP     MaxGrad    Time(sec)
--------------------------------------------------------------------------------------
    9    -664.0510335149251659    -2.00e-04  4.11e-05  1.83e-03  2.11e-03     1.7
               *** Restarting incremental Fock matrix formation ***
   10    -664.0510630915196089    -2.96e-05  7.24e-05  3.46e-03  9.90e-04     1.9
   11    -664.0510339838156142     2.91e-05  4.34e-05  2.24e-03  1.86e-03     1.6
   12    -664.0510847453290353    -5.08e-05  3.24e-05  1.72e-03  7.19e-04     1.6
   13    -664.0510701506882469     1.46e-05  2.03e-05  1.18e-03  8.90e-04     1.6
   14    -664.0510900854385454    -1.99e-05  5.70e-06  2.46e-04  9.40e-05     1.5
   15    -664.0510896224650423     4.63e-07  3.49e-06  1.84e-04  1.81e-04     1.5
   16    -664.0510902649502896    -6.42e-07  1.45e-06  4.46e-05  1.92e-05     1.5
   17    -664.0510902465182426     1.84e-08  8.05e-07  3.21e-05  2.95e-05     1.7
   18    -664.0510902795701895    -3.31e-08  3.77e-07  1.08e-05  4.41e-06     1.5
   19    -664.0510902743685619     5.20e-09  2.01e-07  5.76e-06  4.85e-06     1.3
                 **** Energy Check signals convergence ****

               *****************************************************
               *                     SUCCESS                       *
               *           SCF CONVERGED AFTER  19 CYCLES          *
               *****************************************************


SMD CDS free energy correction energy :                 6.33498     Kcal/mol
Total Energy after SMD CDS correction =              -664.040994853 Eh
             **** ENERGY FILE WAS UPDATED (3_3_3_2_2_pentafluoropropanoic_acid_defluorinated.en.tmp) ****

----------------
TOTAL SCF ENERGY
----------------

Total Energy       :       -664.04099485317431 Eh          -18069.47410 eV

Components:
Nuclear Repulsion  :        493.98259000341744 Eh           13441.94965 eV
Electronic Energy  :      -1157.90888068439494 Eh          -31508.30249 eV
One Electron Energy:      -1884.16454725247513 Eh          -51270.72388 eV
Two Electron Energy:        726.25566656808019 Eh           19762.42139 eV
CPCM Dielectric    :         -0.12479959783029 Eh              -3.39597 eV
SMD CDS (Gcds)     :          0.01009542563348 Eh               0.27471 eV

Virial components:
Potential Energy   :      -1325.20187884355164 Eh          -36060.57641 eV
Kinetic Energy     :        661.16088399037722 Eh           17991.10230 eV
Virial Ratio       :          2.00435614225302

DFT components:
N(Alpha)           :       34.999988886288 electrons
N(Beta)            :       34.999988886288 electrons
N(Total)           :       69.999977772577 electrons
E(X)               :      -72.023026828133 Eh       
E(C)               :       -2.407436426020 Eh       
E(XC)              :      -74.430463254153 Eh       

CPCM Solvation Model Properties:
Surface-charge          :         -1.01546077181936
Corrected charge        :         -1.00000000000000
Outlying charge corr.   :          0.00001970267195 Eh               0.00054 eV
Free-energy (cav+disp)  :          0.01009542563348 Eh               0.27471 eV

---------------
SCF CONVERGENCE
---------------

  Last Energy change         ...   -5.2016e-09  Tolerance :   1.0000e-08
  Last MAX-Density change    ...    5.7611e-06  Tolerance :   1.0000e-07
  Last RMS-Density change    ...    2.0095e-07  Tolerance :   5.0000e-09
  Last DIIS Error            ...    2.1058e-03  Tolerance :   5.0000e-07
  Last Orbital Gradient      ...    4.8535e-06  Tolerance :   1.0000e-05
  Last Orbital Rotation      ...    1.1670e-05  Tolerance :   1.0000e-05


----------------
ORBITAL ENERGIES
----------------

  NO   OCC          E(Eh)            E(eV) 
   0   2.0000     -24.420841      -664.5249 
   1   2.0000     -24.355210      -662.7390 
   2   2.0000     -24.341045      -662.3535 
   3   2.0000     -24.340487      -662.3383 
   4   2.0000     -18.871806      -513.5280 
   5   2.0000     -18.863510      -513.3022 
   6   2.0000     -10.211790      -277.8769 
   7   2.0000     -10.181100      -277.0418 
   8   2.0000     -10.123466      -275.4735 
   9   2.0000      -1.255633       -34.1675 
  10   2.0000      -1.238732       -33.7076 
  11   2.0000      -1.172833       -31.9144 
  12   2.0000      -1.165341       -31.7105 
  13   2.0000      -1.095744       -29.8167 
  14   2.0000      -1.018365       -27.7111 
  15   2.0000      -0.819008       -22.2863 
  16   2.0000      -0.699997       -19.0479 
  17   2.0000      -0.642480       -17.4828 
  18   2.0000      -0.620447       -16.8832 
  19   2.0000      -0.601660       -16.3720 
  20   2.0000      -0.585719       -15.9382 
  21   2.0000      -0.569206       -15.4889 
  22   2.0000      -0.529215       -14.4007 
  23   2.0000      -0.502441       -13.6721 
  24   2.0000      -0.481445       -13.1008 
  25   2.0000      -0.466114       -12.6836 
  26   2.0000      -0.450882       -12.2691 
  27   2.0000      -0.449050       -12.2193 
  28   2.0000      -0.430612       -11.7175 
  29   2.0000      -0.421295       -11.4640 
  30   2.0000      -0.416069       -11.3218 
  31   2.0000      -0.399779       -10.8785 
  32   2.0000      -0.391149       -10.6437 
  33   2.0000      -0.355725        -9.6798 
  34   2.0000      -0.354820        -9.6551 
  35   0.0000      -0.309363        -8.4182 
  36   0.0000      -0.142580        -3.8798 
  37   0.0000      -0.053051        -1.4436 
  38   0.0000       0.003762         0.1024 
  39   0.0000       0.009958         0.2710 
  40   0.0000       0.026960         0.7336 
  41   0.0000       0.059339         1.6147 
  42   0.0000       0.078401         2.1334 
  43   0.0000       0.090797         2.4707 
  44   0.0000       0.128257         3.4901 
  45   0.0000       0.147053         4.0015 
*Only the first 10 virtual orbitals were printed.

                    ********************************
                    * MULLIKEN POPULATION ANALYSIS *
                    ********************************

-----------------------
MULLIKEN ATOMIC CHARGES
-----------------------
   0 C :    0.376872
   1 C :    0.380192
   2 O :   -0.143161
   3 F :    0.053065
   4 F :   -0.088365
   5 C :    0.330117
   6 H :    0.320332
   7 F :   -0.057116
   8 O :   -0.083015
   9 F :   -0.088921
Sum of atomic charges:    1.0000000

--------------------------------
MULLIKEN REDUCED ORBITAL CHARGES
--------------------------------
  0 C s       :     3.053719  s :     3.053719
      pz      :     0.675589  p :     2.186811
      px      :     0.783367
      py      :     0.727855
      dz2     :     0.078279  d :     0.348481
      dxz     :     0.072510
      dyz     :     0.069162
      dx2y2   :     0.064948
      dxy     :     0.063582
      f0      :     0.005707  f :     0.034117
      f+1     :     0.004967
      f-1     :     0.006062
      f+2     :     0.004650
      f-2     :     0.005577
      f+3     :     0.004230
      f-3     :     0.002924

  1 C s       :     3.298642  s :     3.298642
      pz      :     0.658292  p :     2.153464
      px      :     0.907936
      py      :     0.587236
      dz2     :     0.036834  d :     0.153071
      dxz     :     0.038669
      dyz     :     0.029234
      dx2y2   :     0.019774
      dxy     :     0.028559
      f0      :     0.003516  f :     0.014632
      f+1     :     0.002779
      f-1     :     0.002027
      f+2     :     0.001879
      f-2     :     0.002085
      f+3     :     0.001421
      f-3     :     0.000924

  2 O s       :     3.733826  s :     3.733826
      pz      :     1.619284  p :     4.382574
      px      :     1.467106
      py      :     1.296184
      dz2     :     0.003573  d :     0.025361
      dxz     :     0.005610
      dyz     :     0.001983
      dx2y2   :     0.008503
      dxy     :     0.005692
      f0      :     0.000211  f :     0.001399
      f+1     :     0.000194
      f-1     :     0.000153
      f+2     :     0.000025
      f-2     :     0.000210
      f+3     :     0.000271
      f-3     :     0.000335

  3 F s       :     3.924518  s :     3.924518
      pz      :     1.464194  p :     5.005602
      px      :     1.874537
      py      :     1.666872
      dz2     :     0.005920  d :     0.016189
      dxz     :     0.003317
      dyz     :     0.004884
      dx2y2   :     0.001020
      dxy     :     0.001048
      f0      :     0.000162  f :     0.000627
      f+1     :     0.000114
      f-1     :     0.000185
      f+2     :     0.000071
      f-2     :     0.000076
      f+3     :     0.000010
      f-3     :     0.000009

  4 F s       :     3.912549  s :     3.912549
      pz      :     1.830260  p :     5.160080
      px      :     1.579359
      py      :     1.750462
      dz2     :     0.001941  d :     0.015088
      dxz     :     0.003074
      dyz     :     0.001633
      dx2y2   :     0.003249
      dxy     :     0.005191
      f0      :     0.000070  f :     0.000647
      f+1     :     0.000077
      f-1     :     0.000039
      f+2     :     0.000049
      f-2     :     0.000133
      f+3     :     0.000113
      f-3     :     0.000167

  5 C s       :     3.073662  s :     3.073662
      pz      :     0.800274  p :     2.312761
      px      :     0.775275
      py      :     0.737212
      dz2     :     0.010675  d :     0.262309
      dxz     :     0.025266
      dyz     :     0.055813
      dx2y2   :     0.064222
      dxy     :     0.106334
      f0      :     0.002451  f :     0.021151
      f+1     :     0.001500
      f-1     :     0.002464
      f+2     :     0.002806
      f-2     :     0.002532
      f+3     :     0.006297
      f-3     :     0.003101

  6 H s       :     0.599015  s :     0.599015
      pz      :     0.022855  p :     0.072070
      px      :     0.017281
      py      :     0.031934
      dz2     :     0.000922  d :     0.008583
      dxz     :     0.000103
      dyz     :     0.002820
      dx2y2   :     0.002452
      dxy     :     0.002286

  7 F s       :     3.913458  s :     3.913458
      pz      :     1.680056  p :     5.127970
      px      :     1.850070
      py      :     1.597844
      dz2     :     0.002449  d :     0.015047
      dxz     :     0.001714
      dyz     :     0.006047
      dx2y2   :     0.002630
      dxy     :     0.002206
      f0      :     0.000072  f :     0.000640
      f+1     :     0.000022
      f-1     :     0.000168
      f+2     :     0.000165
      f-2     :     0.000110
      f+3     :     0.000053
      f-3     :     0.000050

  8 O s       :     3.842538  s :     3.842538
      pz      :     1.351119  p :     4.206627
      px      :     1.532200
      py      :     1.323308
      dz2     :     0.003536  d :     0.032061
      dxz     :     0.000647
      dyz     :     0.010752
      dx2y2   :     0.008313
      dxy     :     0.008813
      f0      :     0.000176  f :     0.001789
      f+1     :     0.000026
      f-1     :     0.000290
      f+2     :     0.000386
      f-2     :     0.000068
      f+3     :     0.000512
      f-3     :     0.000332

  9 F s       :     3.913155  s :     3.913155
      pz      :     1.502890  p :     5.160010
      px      :     1.854852
      py      :     1.802268
      dz2     :     0.005614  d :     0.015109
      dxz     :     0.003136
      dyz     :     0.004569
      dx2y2   :     0.000795
      dxy     :     0.000995
      f0      :     0.000162  f :     0.000647
      f+1     :     0.000116
      f-1     :     0.000209
      f+2     :     0.000063
      f-2     :     0.000081
      f+3     :     0.000009
      f-3     :     0.000007



                     *******************************
                     * LOEWDIN POPULATION ANALYSIS *
                     *******************************

----------------------
LOEWDIN ATOMIC CHARGES
----------------------
   0 C :   -0.573002
   1 C :    0.128635
   2 O :    0.483340
   3 F :    0.353498
   4 F :    0.219696
   5 C :   -0.379252
   6 H :   -0.025224
   7 F :    0.245489
   8 O :    0.325611
   9 F :    0.221208

-------------------------------
LOEWDIN REDUCED ORBITAL CHARGES
-------------------------------
  0 C s       :     2.780207  s :     2.780207
      pz      :     0.785423  p :     2.504933
      px      :     0.878461
      py      :     0.841048
      dz2     :     0.236354  d :     1.077306
      dxz     :     0.183633
      dyz     :     0.247794
      dx2y2   :     0.163922
      dxy     :     0.245603
      f0      :     0.033825  f :     0.210556
      f+1     :     0.029795
      f-1     :     0.037038
      f+2     :     0.032704
      f-2     :     0.031897
      f+3     :     0.023528
      f-3     :     0.021768

  1 C s       :     2.889592  s :     2.889592
      pz      :     0.732795  p :     2.362471
      px      :     0.989250
      py      :     0.640426
      dz2     :     0.133241  d :     0.529343
      dxz     :     0.109591
      dyz     :     0.100612
      dx2y2   :     0.069733
      dxy     :     0.116166
      f0      :     0.020634  f :     0.089959
      f+1     :     0.017892
      f-1     :     0.016975
      f+2     :     0.008160
      f-2     :     0.011711
      f+3     :     0.008068
      f-3     :     0.006518

  2 O s       :     3.214797  s :     3.214797
      pz      :     1.474488  p :     4.228532
      px      :     1.436455
      py      :     1.317590
      dz2     :     0.008259  d :     0.068820
      dxz     :     0.008509
      dyz     :     0.006123
      dx2y2   :     0.025683
      dxy     :     0.020245
      f0      :     0.000321  f :     0.004512
      f+1     :     0.000401
      f-1     :     0.000522
      f+2     :     0.000474
      f-2     :     0.000589
      f+3     :     0.001096
      f-3     :     0.001109

  3 F s       :     3.636516  s :     3.636516
      pz      :     1.533273  p :     4.979944
      px      :     1.815177
      py      :     1.631494
      dz2     :     0.011360  d :     0.028786
      dxz     :     0.006228
      dyz     :     0.008155
      dx2y2   :     0.001104
      dxy     :     0.001939
      f0      :     0.000321  f :     0.001257
      f+1     :     0.000230
      f-1     :     0.000376
      f+2     :     0.000097
      f-2     :     0.000198
      f+3     :     0.000021
      f-3     :     0.000014

  4 F s       :     3.634978  s :     3.634978
      pz      :     1.782136  p :     5.116279
      px      :     1.603611
      py      :     1.730532
      dz2     :     0.003387  d :     0.027688
      dxz     :     0.005345
      dyz     :     0.002920
      dx2y2   :     0.005701
      dxy     :     0.010334
      f0      :     0.000144  f :     0.001359
      f+1     :     0.000148
      f-1     :     0.000079
      f+2     :     0.000102
      f-2     :     0.000280
      f+3     :     0.000249
      f-3     :     0.000356

  5 C s       :     2.761239  s :     2.761239
      pz      :     0.781906  p :     2.605389
      px      :     0.889096
      py      :     0.934386
      dz2     :     0.062405  d :     0.880790
      dxz     :     0.080139
      dyz     :     0.160726
      dx2y2   :     0.250343
      dxy     :     0.327176
      f0      :     0.009844  f :     0.131834
      f+1     :     0.007751
      f-1     :     0.015817
      f+2     :     0.019946
      f-2     :     0.014709
      f+3     :     0.040654
      f-3     :     0.023113

  6 H s       :     0.624309  s :     0.624309
      pz      :     0.082767  p :     0.307356
      px      :     0.064967
      py      :     0.159623
      dz2     :     0.009479  d :     0.093559
      dxz     :     0.001030
      dyz     :     0.030263
      dx2y2   :     0.025442
      dxy     :     0.027345

  7 F s       :     3.637319  s :     3.637319
      pz      :     1.682521  p :     5.088151
      px      :     1.790354
      py      :     1.615276
      dz2     :     0.003722  d :     0.027709
      dxz     :     0.002833
      dyz     :     0.012647
      dx2y2   :     0.004947
      dxy     :     0.003561
      f0      :     0.000152  f :     0.001332
      f+1     :     0.000047
      f-1     :     0.000336
      f+2     :     0.000355
      f-2     :     0.000223
      f+3     :     0.000116
      f-3     :     0.000102

  8 O s       :     3.425750  s :     3.425750
      pz      :     1.283676  p :     4.175876
      px      :     1.415592
      py      :     1.476607
      dz2     :     0.008217  d :     0.066825
      dxz     :     0.000884
      dyz     :     0.017769
      dx2y2   :     0.024229
      dxy     :     0.015726
      f0      :     0.000556  f :     0.005938
      f+1     :     0.000068
      f-1     :     0.000985
      f+2     :     0.001091
      f-2     :     0.000171
      f+3     :     0.001433
      f-3     :     0.001634

  9 F s       :     3.634758  s :     3.634758
      pz      :     1.559979  p :     5.115102
      px      :     1.793351
      py      :     1.761771
      dz2     :     0.010724  d :     0.027588
      dxz     :     0.005452
      dyz     :     0.008824
      dx2y2   :     0.001014
      dxy     :     0.001575
      f0      :     0.000338  f :     0.001344
      f+1     :     0.000239
      f-1     :     0.000448
      f+2     :     0.000113
      f-2     :     0.000175
      f+3     :     0.000018
      f-3     :     0.000013



                      *****************************
                      * MAYER POPULATION ANALYSIS *
                      *****************************

  NA   - Mulliken gross atomic population
  ZA   - Total nuclear charge
  QA   - Mulliken gross atomic charge
  VA   - Mayer's total valence
  BVA  - Mayer's bonded valence
  FA   - Mayer's free valence

  ATOM       NA         ZA         QA         VA         BVA        FA
  0 C      5.6231     6.0000     0.3769     4.5953     4.5953    -0.0000
  1 C      5.6198     6.0000     0.3802     3.6336     3.6336     0.0000
  2 O      8.1432     8.0000    -0.1432     2.4379     2.4379     0.0000
  3 F      8.9469     9.0000     0.0531     1.4882     1.4882     0.0000
  4 F      9.0884     9.0000    -0.0884     1.2633     1.2633    -0.0000
  5 C      5.6699     6.0000     0.3301     4.3337     4.3337     0.0000
  6 H      0.6797     1.0000     0.3203     0.9425     0.9425    -0.0000
  7 F      9.0571     9.0000    -0.0571     1.3095     1.3095     0.0000
  8 O      8.0830     8.0000    -0.0830     2.4688     2.4688     0.0000
  9 F      9.0889     9.0000    -0.0889     1.2630     1.2630    -0.0000

  Mayer bond orders larger than 0.100000
B(  0-C ,  1-C ) :   0.9284 B(  0-C ,  4-F ) :   1.1884 B(  0-C ,  7-F ) :   1.1696 
B(  0-C ,  9-F ) :   1.1914 B(  1-C ,  3-F ) :   1.2945 B(  1-C ,  5-C ) :   0.9568 
B(  1-C ,  8-O ) :   0.3048 B(  2-O ,  5-C ) :   1.3816 B(  2-O ,  6-H ) :   0.8868 
B(  2-O ,  8-O ) :   0.1149 B(  5-C ,  8-O ) :   1.8807 

-------
TIMINGS
-------

Total SCF time: 0 days 0 hours 0 min 32 sec 

Total time                  ....      32.545 sec
Sum of individual times     ....      31.062 sec  ( 95.4%)

SCF preparation             ....       0.091 sec  (  0.3%)
Fock matrix formation       ....      30.363 sec  ( 93.3%)
  Startup                   ....       0.005 sec  (  0.0% of F)
  Split-RI-J                ....       8.415 sec  ( 27.7% of F)
  XC integration            ....      14.387 sec  ( 47.4% of F)
    Basis function eval.    ....       4.012 sec  ( 27.9% of XC)
    Density eval.           ....       4.315 sec  ( 30.0% of XC)
    XC-Functional eval.     ....       0.501 sec  (  3.5% of XC)
    XC-Potential eval.      ....       5.109 sec  ( 35.5% of XC)
  CPCM terms                ....       8.700 sec  ( 28.7% of F)
Diagonalization             ....       0.000 sec  (  0.0%)
Density matrix formation    ....       0.067 sec  (  0.2%)
Total Energy calculation    ....       0.011 sec  (  0.0%)
Population analysis         ....       0.017 sec  (  0.1%)
Orbital Transformation      ....       0.054 sec  (  0.2%)
Orbital Orthonormalization  ....       0.000 sec  (  0.0%)
DIIS solution               ....       0.278 sec  (  0.9%)
SOSCF solution              ....       0.181 sec  (  0.6%)
Finished LeanSCF after  32.6 sec

Maximum memory used throughout the entire LEANSCF-calculation: 29.7 MB

------------------------------------------------------------------------------
                         ORCA PROPERTY INTEGRAL CALCULATIONS
------------------------------------------------------------------------------

GBWName                                   ... 3_3_3_2_2_pentafluoropropanoic_acid_defluorinated.gbw
Number of atoms                           ...     10
Number of basis functions                 ...    293
Max core memory                           ...  28672 MB

Dipole integrals                          ... YES
Quadrupole integrals                      ...  NO
Linear momentum integrals                 ...  NO
Angular momentum integrals                ...  NO
Higher moments length integrals           ...  NO
Higher moments velocity integrals         ...  NO
Kinetic energy integrals                  ...  NO
GIAO right hand sides                     ...  NO
GIAO dipole derivative integrals          ...  NO
SOC integrals                             ...  NO
EPR diamagnetic integrals (GIAO)          ...  NO
EPR gauge integrals                       ...  NO
Field gradient integrals                  ...  NO (   0 nuclei)
Spin-dipole/Fermi contact integrals       ...  NO (   0 nuclei)
Contact density integrals                 ...  NO (   0 nuclei)
Nucleus-orbit integrals                   ...  NO (   0 nuclei)
Geometric perturbations                   ...  NO (  10 nuclei)

Choice of electric origin   ... Center of mass
Position of electric origin ... (-10.0992,  1.5668,  0.1963) 
Choice of magnetic origin   ... GIAO
Position of magnetic origin ... (  0.0000,  0.0000,  0.0000) 

Calculating integrals                     ... Electric Dipole (Length)     done (  0.0 sec)

Property integrals calculated in   0.0 sec

Maximum memory used throughout the entire PROPINT-calculation: 25.8 MB


-------------------------------------------------------------------------------
                          DFT DISPERSION CORRECTION                            
                                                                               
                                DFTD4 V3.4.0                                   
-------------------------------------------------------------------------------
The PBE functional is recognized
Active option DFTDOPT                   ...         5   

-------------------------   ----------------
Dispersion correction           -0.007541061
-------------------------   ----------------


-------------------------   --------------------
FINAL SINGLE POINT ENERGY      -664.048535914672
-------------------------   --------------------

------------------------------------------------------------------------------
                         ORCA SCF GRADIENT CALCULATION
------------------------------------------------------------------------------

Nuc. rep. gradient        (SHARK) ... done (  0.0 sec)
HCore & Overlap gradient  (SHARK) ... done (  0.3 sec)
Split-RIJ-J gradient      (SHARK) ... done (  2.3 sec)
XC gradient                       ... done (  5.3 sec)
CPCM gradient                     ... done (  1.3 sec)
SMD gradient                      ... done (  0.0 sec)
Dispersion correction             ... done (  0.0 sec)

-------------------
DISPERSION GRADIENT
-------------------

   1   C   :   -0.000167264   -0.000017988    0.000034537
   2   C   :   -0.000036321    0.000055453    0.000025538
   3   O   :    0.000214193    0.000055366   -0.000074257
   4   F   :    0.000011137    0.000150727    0.000143609
   5   F   :   -0.000152408    0.000021554    0.000028692
   6   C   :    0.000185251    0.000016549   -0.000058550
   7   H   :    0.000044866    0.000030792   -0.000010881
   8   F   :   -0.000120572   -0.000101952    0.000091861
   9   O   :    0.000183708   -0.000151309   -0.000104310
  10   F   :   -0.000162589   -0.000059192   -0.000076239

Difference to translation invariance:
           :    0.0000000000   -0.0000000000   -0.0000000000

Difference to rotation invariance:
           :   -0.0000000000   -0.0000000000    0.0000000000

Norm of the Dispersion gradient    ...    0.0005785543
RMS gradient                       ...    0.0001056291
MAX gradient                       ...    0.0002141930

------------------
CARTESIAN GRADIENT
------------------

   1   C   :    0.061788178    0.011987043    0.011716823
   2   C   :   -0.031620858    0.027700170   -0.103575058
   3   O   :    0.021981079    0.034888616   -0.000144041
   4   F   :    0.021589874    0.015033899    0.070093749
   5   F   :   -0.027712717    0.018830490    0.009601037
   6   C   :   -0.073982083   -0.034021724    0.046503888
   7   H   :    0.010552214   -0.013834761   -0.006806006
   8   F   :    0.003440864   -0.030929058    0.023792220
   9   O   :    0.023372257   -0.014751424   -0.017717256
  10   F   :   -0.009408810   -0.014903252   -0.033465357

Difference to translation invariance:
           :   -0.0000000000    0.0000000000    0.0000000000

Difference to rotation invariance:
           :    0.0002903691    0.0035422610    0.0030690196

Norm of the Cartesian gradient     ...    0.1957026297
RMS gradient                       ...    0.0357302483
MAX gradient                       ...    0.1035750578

-------
TIMINGS
-------

Total SCF gradient time     ....        9.205 sec

Densities                   ....       0.001 sec  (  0.0%)
One electron gradient       ....       0.276 sec  (  3.0%)
RI-J Coulomb gradient       ....       2.314 sec  ( 25.1%)
XC gradient                 ....       5.284 sec  ( 57.4%)
CPCM gradient               ....       1.301 sec  ( 14.1%)
   A-Matrix (El+Nuc)        ....       0.025 sec  (  0.3%)
   Potential                ....       1.275 sec  ( 13.9%)
SMD gradient                ....       0.001 sec  (  0.0%)

Maximum memory used throughout the entire SCFGRAD-calculation: 44.2 MB
------------------------------------------------------------------------------
                         ORCA GEOMETRY RELAXATION STEP
------------------------------------------------------------------------------

Reading the OPT-File                    .... done
Getting information on internals        .... done
Copying old internal coords+grads       .... done
Making the new internal coordinates     .... (2022 redundants) done
Validating the new internal coordinates .... (2022 redundants) done
Calculating the B-matrix                .... done
Calculating the G,G- and P matrices     .... done
Transforming gradient to internals      .... done
Projecting the internal gradient        .... done
Number of atoms                         ....  10
Number of internal coordinates          ....  33
Current Energy                          ....  -664.048535915 Eh
Current gradient norm                   ....     0.195702630 Eh/bohr
Maximum allowed component of the step   ....  0.300
Current trust radius                    ....  0.300
Evaluating the initial hessian          ....  (Almloef) done
Projecting the Hessian                  .... done
Forming the augmented Hessian           .... done
Diagonalizing the augmented Hessian     .... done
Last element of RFO vector              ....  0.905487578
Lowest eigenvalues of augmented Hessian:
 -0.047310078  0.010339679  0.011427446  0.018120015  0.031232140
Length of the computed step             ....  0.468667687
Warning: the length of the step is outside the trust region - taking restricted step instead
The input lambda is                     ....     0.009339
   iter:   5  x=   -0.015574  g=   50.058876 f(x)=     0.668698
   iter:  10  x=   -0.134914  g=    0.656783 f(x)=     0.001819
The output lambda is                    ....    -0.134966 (13 iterations)
The final length of the internal step   ....  0.300000000
Converting the step to Cartesian space:
 Initial RMS(Int)=    0.0522232968
Transforming coordinates:
 Iter   0:  RMS(Cart)=    0.0799032165 RMS(Int)=    1.0919322085
 Iter   5:  RMS(Cart)=    0.0000002101 RMS(Int)=    0.0000001393
done
Storing new coordinates                 .... done

                                .--------------------.
          ----------------------|Geometry convergence|-------------------------
          Item                value                   Tolerance       Converged
          ---------------------------------------------------------------------
          RMS gradient        0.0234942513            0.0001000000      NO
          MAX gradient        0.0726153431            0.0003000000      NO
          RMS step            0.0522232968            0.0020000000      NO
          MAX step            0.1153546468            0.0040000000      NO
          -------------------------------------------------------------------------
          ........................................................
          Max(Bonds)      0.0577      Max(Angles)    6.61
          Max(Dihed)        5.85      Max(Improp)    0.00
          ---------------------------------------------------------------------

The optimization has not yet converged - more geometry cycles are needed


    ---------------------------------------------------------------------------
                         Redundant Internal Coordinates
                            (Angstroem and degrees)

        Definition                    Value    dE/dq     Step     New-Value
    ----------------------------------------------------------------------------
     1. B(C   1,C   0)                1.5314 -0.012474  0.0130    1.5444   
     2. B(F   3,C   1)                1.3840  0.072615 -0.0577    1.3264   
     3. B(F   4,C   0)                1.3824  0.034852 -0.0275    1.3548   
     4. B(C   5,O   2)                1.3492  0.039333 -0.0265    1.3227   
     5. B(C   5,C   1)                1.5105 -0.009554  0.0094    1.5199   
     6. B(H   6,O   2)                0.9675 -0.014573  0.0120    0.9795   
     7. B(F   7,C   0)                1.3839  0.038771 -0.0308    1.3531   
     8. B(O   8,C   5)                1.2215  0.018145 -0.0082    1.2133   
     9. B(F   9,C   0)                1.3833  0.037864 -0.0300    1.3533   
    10. A(C   1,C   0,F   4)          109.22 -0.004080    0.47    109.69   
    11. A(F   4,C   0,F   7)          108.96 -0.001560    0.04    109.00   
    12. A(F   4,C   0,F   9)          108.72 -0.006369    0.85    109.56   
    13. A(F   7,C   0,F   9)          109.47  0.000844   -0.11    109.35   
    14. A(C   1,C   0,F   9)          110.08 -0.000972    0.18    110.26   
    15. A(C   1,C   0,F   7)          110.36  0.011842   -1.39    108.97   
    16. A(C   0,C   1,C   5)          114.26 -0.046984    6.61    120.87   
    17. A(C   0,C   1,F   3)          109.59  0.006194    1.02    110.61   
    18. A(F   3,C   1,C   5)          109.29 -0.000485    1.86    111.15   
    19. A(C   5,O   2,H   6)          121.51  0.021640   -2.45    119.06   
    20. A(O   2,C   5,O   8)          119.10 -0.027722    2.65    121.75   
    21. A(C   1,C   5,O   2)          119.82 -0.005411    0.63    120.44   
    22. A(C   1,C   5,O   8)          121.08  0.033123   -3.27    117.81   
    23. D(F   3,C   1,C   0,F   7)    -61.21  0.012205   -3.12    -64.33   
    24. D(C   5,C   1,C   0,F   4)   -178.43 -0.014583    4.34   -174.09   
    25. D(F   3,C   1,C   0,F   4)     58.55  0.014997   -3.63     54.92   
    26. D(C   5,C   1,C   0,F   7)     61.81 -0.017375    4.85     66.66   
    27. D(F   3,C   1,C   0,F   9)    177.84  0.004101   -2.19    175.65   
    28. D(O   2,C   5,C   1,F   3)    -59.06 -0.012852    3.68    -55.38   
    29. D(O   2,C   5,C   1,C   0)    177.75  0.012912   -3.80    173.95   
    30. D(C   1,C   5,O   2,H   6)     -0.00  0.002134   -0.82     -0.82   
    31. D(O   8,C   5,C   1,F   3)    121.07 -0.007369    1.63    122.70   
    32. D(O   8,C   5,O   2,H   6)    179.87 -0.003162    1.18    181.05   
    33. D(O   8,C   5,C   1,C   0)     -2.12  0.018395   -5.85     -7.97   
    ----------------------------------------------------------------------------

Geometry step timings:
Preparation and reading OPT file:      0.000 s ( 1.880 %)
Internal coordinates            :      0.000 s ( 3.203 %)
B/P matrices and projection     :      0.000 s (17.618 %)
Hessian update/contruction      :      0.000 s (15.111 %)
Making the step                 :      0.000 s (25.696 %)
Converting the step to Cartesian:      0.000 s ( 4.178 %)
Storing new data                :      0.000 s ( 3.273 %)
Checking convergence            :      0.000 s ( 3.900 %)
Final printing                  :      0.000 s (25.070 %)
Total time                      :      0.001 s

Time for energy+gradient        :     43.472 s
Time for complete geometry iter :     43.507 s

         *************************************************************
         *                GEOMETRY OPTIMIZATION CYCLE   2            *
         *************************************************************
---------------------------------
CARTESIAN COORDINATES (ANGSTROEM)
---------------------------------
  C     -6.422659    0.630329    0.212214
  C     -5.130039    1.469432    0.111089
  O     -2.787582    1.617126   -0.655371
  F     -4.887887    2.079308    1.263754
  F     -7.446808    1.416835    0.622202
  C     -3.856853    0.864194   -0.457100
  H     -2.832256    2.572297   -0.442860
  F     -6.235903   -0.357392    1.118039
  O     -3.849580   -0.327485   -0.685088
  F     -6.722573    0.085175   -0.989550

----------------------------
CARTESIAN COORDINATES (A.U.)
----------------------------
  NO LB      ZA    FRAG     MASS         X           Y           Z
   0 C     6.0000    0    12.011  -12.137067    1.191150    0.401025
   1 C     6.0000    0    12.011   -9.694369    2.776824    0.209927
   2 O     8.0000    0    15.999   -5.267766    3.055925   -1.238472
   3 F     9.0000    0    18.998   -9.236768    3.929323    2.388149
   4 F     9.0000    0    18.998  -14.072428    2.677430    1.175792
   5 C     6.0000    0    12.011   -7.288395    1.633090   -0.863793
   6 H     1.0000    0     1.008   -5.352189    4.860936   -0.836884
   7 F     9.0000    0    18.998  -11.784148   -0.675372    2.112788
   8 O     8.0000    0    15.999   -7.274652   -0.618857   -1.294629
   9 F     9.0000    0    18.998  -12.703822    0.160958   -1.869978

--------------------------------
INTERNAL COORDINATES (ANGSTROEM)
--------------------------------
 C      0   0   0     0.000000000000     0.00000000     0.00000000
 C      1   0   0     1.544404981120     0.00000000     0.00000000
 O      2   1   0     2.469084935789   147.87299291     0.00000000
 F      2   1   3     1.326357552411   110.22609469   223.51990467
 F      1   2   3     1.354829731092   109.69990889   191.34204072
 C      3   2   1     1.322708734094    32.05726148   349.97835341
 H      3   2   1     0.979544851917    87.00288724   169.22082879
 F      1   2   3     1.353141188675   108.96008693    72.09474737
 O      6   3   2     1.213313898366   121.74046537   181.95641445
 F      1   2   3     1.353283416160   110.25572081   312.10459366

---------------------------
INTERNAL COORDINATES (A.U.)
---------------------------
 C      0   0   0     0.000000000000     0.00000000     0.00000000
 C      1   0   0     2.918502454180     0.00000000     0.00000000
 O      2   1   0     4.665894330031   147.87299291     0.00000000
 F      2   1   3     2.506452529716   110.22609469   223.51990467
 F      1   2   3     2.560257149858   109.69990889   191.34204072
 C      3   2   1     2.499557262383    32.05726148   349.97835341
 H      3   2   1     1.851071506016    87.00288724   169.22082879
 F      1   2   3     2.557066267124   108.96008693    72.09474737
 O      6   3   2     2.292830982391   121.74046537   181.95641445
 F      1   2   3     2.557335038121   110.25572081   312.10459366

------------------------------------------------------------------------------
                   ___                                                        
                  /   \      - P O W E R E D   B Y -                         
                 /     \                                                     
                 |  |  |   _    _      __       _____    __    __             
                 |  |  |  | |  | |    /  \     |  _  \  |  |  /  |          
                  \  \/   | |  | |   /    \    | | | |  |  | /  /          
                 / \  \   | |__| |  /  /\  \   | |_| |  |  |/  /          
                |  |  |   |  __  | /  /__\  \  |    /   |      \           
                |  |  |   | |  | | |   __   |  |    \   |  |\   \          
                \     /   | |  | | |  |  |  |  | |\  \  |  | \   \       
                 \___/    |_|  |_| |__|  |__|  |_| \__\ |__|  \__/        
                                                                              
                      - O R C A' S   B I G   F R I E N D -                    
                                      &                                       
                       - I N T E G R A L  F E E D E R -                       
                                                                              
 v1 FN, 2020, v2 2021, v3 2022-2024                                           
------------------------------------------------------------------------------


----------------------
SHARK INTEGRAL PACKAGE
----------------------

Number of atoms                             ...     10
Number of basis functions                   ...    293
Number of shells                            ...    105
Maximum angular momentum                    ...      3
Integral batch strategy                     ... SHARK/LIBINT Hybrid
RI-J (if used) integral strategy            ... SPLIT-RIJ (Revised 2003 algorithm where possible)
Printlevel                                  ...      1
Contraction scheme used                     ... SEGMENTED contraction
Prescreening option                         ... SCHWARTZ
   Thresh                                   ... 2.500e-11
   Tcut                                     ... 2.500e-12
   Tpresel                                  ... 2.500e-12 
Coulomb Range Separation                    ... NOT USED
Exchange Range Separation                   ... NOT USED
Multipole approximations                    ... NOT USED
Finite Nucleus Model                        ... NOT USED
CABS basis                                  ... NOT available
Auxiliary Coulomb fitting basis             ... AVAILABLE
   # of basis functions in Aux-J            ...    452
   # of shells in Aux-J                     ...    140
   Maximum angular momentum in Aux-J        ...      4
Auxiliary J/K fitting basis                 ... NOT available
Auxiliary Correlation fitting basis         ... NOT available
Auxiliary 'external' fitting basis          ... NOT available

Checking pre-screening integrals            ... done (  0.0 sec) Dimension = 105
   => SHARK Basis and OBASIS are compatible. Storing Pre-screening
Shell pair information
Shell pair cut-off parameter TPreSel        ...   2.5e-12
Total number of shell pairs                 ...      5565
Shell pairs after pre-screening             ...      4817
Total number of primitive shell pairs       ...     17967
Primitive shell pairs kept                  ...     11152
          la=0 lb=0:    934 shell pairs
          la=1 lb=0:   1252 shell pairs
          la=1 lb=1:    419 shell pairs
          la=2 lb=0:    756 shell pairs
          la=2 lb=1:    506 shell pairs
          la=2 lb=2:    163 shell pairs
          la=3 lb=0:    349 shell pairs
          la=3 lb=1:    246 shell pairs
          la=3 lb=2:    152 shell pairs
          la=3 lb=3:     40 shell pairs

Checking whether 4 symmetric matrices of dimension 293 fit in memory
:Max Core in MB      =  28672.00
 MB in use           =     10.22
 MB left             =  28661.78
 MB needed           =      1.31
 Data fit in memory  = YES
Calculating RI/J V-Matrix + Cholesky decomp.... done (  0.0 sec)
Calculating Nuclear repulsion               ... done (  0.0 sec) ENN=    496.389299546424 Eh

Diagonalization of the overlap matrix:
Smallest eigenvalue                        ... 2.907e-04
Time for diagonalization                   ...    0.011 sec
Threshold for overlap eigenvalues          ... 1.000e-07
Number of eigenvalues below threshold      ... 0
Time for construction of square roots      ...    0.005 sec
Total time needed                          ...    0.016 sec

-------------------
DFT GRID GENERATION
-------------------

General Integration Accuracy     IntAcc      ... 4.388
Radial Grid Type                 RadialGrid  ... OptM3 with GC (2021)
[...]
     28      -0.030387  -0.160927  -0.447595   0.086487  -0.081243  -0.087080
     29      -0.122212   0.114941   0.076082   0.341518  -0.258104   0.078490
                 18         19         20         21         22         23    
      0      -0.068510   0.031911  -0.312754  -0.451007  -0.029993   0.235064
      1       0.032875  -0.003410  -0.056397  -0.140410   0.051402  -0.726635
      2      -0.020501   0.010111  -0.085469  -0.047549  -0.006220   0.110173
      3      -0.015501   0.009491   0.051574  -0.528243  -0.008928  -0.036256
      4      -0.258732   0.082942  -0.065447  -0.173873   0.025387   0.060934
      5       0.012560  -0.001547   0.077567   0.024562  -0.014561   0.040023
      6      -0.087515  -0.011736   0.160874   0.208182  -0.034372  -0.004204
      7      -0.094203   0.011393   0.191532   0.148580   0.076045   0.051310
      8      -0.015616  -0.036706  -0.158655  -0.224072   0.004324  -0.014946
      9       0.018141  -0.011594   0.009711   0.062190   0.002083   0.004526
     10       0.043769  -0.021673   0.069435   0.049627  -0.001130  -0.011965
     11      -0.084629   0.026881   0.255327   0.121172   0.007605  -0.027423
     12      -0.063636   0.013367  -0.112947   0.142343   0.018829  -0.166306
     13       0.104665  -0.036121   0.379837  -0.134630  -0.022429   0.233809
     14       0.018599  -0.006047   0.071286  -0.001228  -0.000935   0.005654
     15      -0.037528  -0.070020   0.132529   0.055564  -0.016549   0.012027
     16       0.122760  -0.067535  -0.120580  -0.036140   0.035849   0.007575
     17       0.158245  -0.149011  -0.226695   0.050959  -0.005995   0.015735
     18       0.712860   0.496855  -0.194071  -0.277358   0.739410   0.386926
     19       0.163596   0.219758   0.145897   0.073719   0.218023   0.124398
     20       0.541791   0.808378   0.275100   0.285971  -0.610187  -0.322064
     21       0.057068  -0.008647  -0.016935   0.160866  -0.002796   0.053925
     22      -0.009704   0.018692  -0.250069   0.188330  -0.008238   0.147019
     23      -0.000759  -0.016072   0.281532  -0.137021   0.005389  -0.093141
     24       0.070629   0.029733  -0.035162   0.012501   0.005248  -0.034222
     25       0.037813   0.005800  -0.099576  -0.085444  -0.132763  -0.065082
     26      -0.047001   0.071311   0.062884   0.018854   0.040258   0.024034
     27       0.041665  -0.016551   0.105937   0.047447   0.002248  -0.013610
     28      -0.034742   0.005379  -0.131118   0.061139  -0.003220   0.052217
     29      -0.004252   0.011999  -0.393771   0.157041  -0.000299   0.019438
                 24         25         26         27         28         29    
      0       0.146384   0.451666  -0.483201  -0.025203   0.001746  -0.000733
      1      -0.099818   0.200324  -0.148425   0.021143  -0.000032  -0.000045
      2      -0.891874  -0.033348  -0.149929  -0.028997  -0.004412  -0.000242
      3      -0.014848  -0.332719   0.494000  -0.112009  -0.208833  -0.000015
      4      -0.017656  -0.011198   0.183378  -0.067623   0.009076   0.000445
      5      -0.052844   0.508172   0.492920   0.277551   0.201528   0.000840
      6      -0.015991   0.232138   0.050425  -0.107631  -0.158730   0.014654
      7      -0.007625   0.142301   0.010861   0.033652  -0.172957  -0.059983
      8       0.016211  -0.216152  -0.015578   0.072304   0.168909   0.006304
      9       0.036213   0.004940  -0.059208  -0.006616   0.003701   0.000013
     10       0.024977  -0.045811  -0.071927  -0.007753  -0.006467  -0.000005
     11       0.093528  -0.242691  -0.283058  -0.086014  -0.033896  -0.000455
     12      -0.042844  -0.053694   0.060841   0.005780   0.006379   0.000134
     13       0.050095   0.021562  -0.032010  -0.006895  -0.003878  -0.000059
     14       0.052157   0.008159   0.008370   0.002295   0.001389  -0.000022
     15      -0.017767  -0.175034  -0.158604   0.275759   0.395846   0.000208
     16      -0.004781   0.041173   0.088299  -0.358228   0.485453  -0.004470
     17      -0.033920   0.123589   0.011031  -0.108368  -0.440807   0.000875
     18       0.038059  -0.262122  -0.211495   0.594388  -0.320646  -0.242793
     19       0.002524   0.063439  -0.051255   0.123267  -0.168650   0.963619
     20      -0.020639   0.181532   0.074554  -0.462873   0.279855  -0.092778
     21      -0.076291  -0.062711   0.056961   0.014279   0.005877   0.000149
     22      -0.099720  -0.075348   0.054407   0.007915   0.004932   0.000131
     23       0.138265   0.061016  -0.027619  -0.002091  -0.002019  -0.000007
     24      -0.003221   0.019047  -0.027307  -0.046857   0.019653   0.000629
     25       0.004551  -0.153572  -0.071956   0.273037  -0.180463   0.002269
     26       0.003944   0.038362   0.034561  -0.049969   0.038783  -0.001099
     27       0.025154  -0.050701   0.026604  -0.002472  -0.001159   0.000058
     28       0.104395  -0.039878   0.025777  -0.002216  -0.000642  -0.000019
     29       0.318890  -0.064723   0.058543   0.002930  -0.001161   0.000093


-----------
IR SPECTRUM
-----------

 Mode   freq       eps      Int      T**2         TX        TY        TZ
       cm**-1   L/(mol*cm) km/mol    a.u.
----------------------------------------------------------------------------
  6:     27.81   0.000533    2.69  0.005978  (-0.021709  0.042687  0.060697)
  7:    114.08   0.001395    7.05  0.003815  ( 0.055909  0.018336 -0.018788)
  8:    172.91   0.001853    9.36  0.003343  (-0.011097 -0.039765 -0.040485)
  9:    233.78   0.004753   24.02  0.006345  ( 0.058453  0.018870 -0.050714)
 10:    279.80   0.008771   44.33  0.009783  (-0.068209 -0.001121  0.071618)
 11:    308.84   0.002057   10.40  0.002079  ( 0.041996  0.004473 -0.017175)
 12:    358.91   0.000729    3.68  0.000634  ( 0.011413 -0.002472 -0.022299)
 13:    432.51   0.010834   54.75  0.007817  ( 0.001545  0.032286  0.082294)
 14:    494.66   0.001844    9.32  0.001163  (-0.023730  0.020997 -0.012625)
 15:    537.29   0.008375   42.32  0.004864  (-0.069740 -0.000671  0.000097)
 16:    605.91   0.020902  105.63  0.010765  (-0.102266  0.006632  0.016210)
 17:    647.83   0.009623   48.63  0.004635  ( 0.034094 -0.023420 -0.054077)
 18:    668.45   0.007733   39.08  0.003610  ( 0.037363  0.011036  0.045741)
 19:    698.15   0.022720  114.82  0.010155  ( 0.056571  0.024175  0.079816)
 20:    753.55   0.002085   10.53  0.000863  (-0.016517 -0.022619 -0.008881)
 21:   1023.19   0.072829  368.05  0.022212  (-0.135708 -0.054320  0.029065)
 22:   1102.01   0.061611  311.36  0.017447  ( 0.049648  0.097158 -0.074446)
 23:   1115.76   0.068299  345.16  0.019102  ( 0.050827 -0.127416  0.016858)
 24:   1145.26   0.098172  496.12  0.026750  ( 0.029171 -0.015210 -0.160212)
 25:   1207.74   0.037735  190.70  0.009750  (-0.008569  0.029085  0.093972)
 26:   1291.96   0.044952  227.17  0.010858  (-0.075838  0.005175  0.071272)
 27:   1424.79   0.007693   38.88  0.001685  ( 0.031262 -0.020867  0.016498)
 28:   1817.09   0.084498  427.02  0.014512  ( 0.052813  0.095944 -0.050171)
 29:   3489.15   0.117624  594.42  0.010520  ( 0.005379  0.097614 -0.031025)

* The epsilon (eps) is given for a Dirac delta lineshape.
** The dipole moment derivative (T) already includes vibrational overlap.

The first frequency considered to be a vibration is 6
The total number of vibrations considered is 24


--------------------------
THERMOCHEMISTRY AT 298.15K
--------------------------

Temperature         ...   298.15 K
Pressure            ...     1.00 atm
Total Mass          ...   145.03 AMU
Quasi RRHO          ...     True
Cut-Off Frequency   ...     1.00 cm^-1

Throughout the following assumptions are being made:
  (1) The electronic state is orbitally nondegenerate
  (2) There are no thermally accessible electronically excited states
  (3) Hindered rotations indicated by low frequency modes are not
      treated as such but are treated as vibrations and this may
      cause some error
  (4) All equations used are the standard statistical mechanics
      equations for an ideal gas
  (5) All vibrations are strictly harmonic

freq.      27.81  E(vib)   ...       0.55 
freq.     114.08  E(vib)   ...       0.44 
freq.     172.91  E(vib)   ...       0.38 
freq.     233.78  E(vib)   ...       0.32 
freq.     279.80  E(vib)   ...       0.28 
freq.     308.84  E(vib)   ...       0.26 
freq.     358.91  E(vib)   ...       0.22 
freq.     432.51  E(vib)   ...       0.18 
freq.     494.66  E(vib)   ...       0.14 
freq.     537.29  E(vib)   ...       0.12 
freq.     605.91  E(vib)   ...       0.10 
freq.     647.83  E(vib)   ...       0.09 
freq.     668.45  E(vib)   ...       0.08 
freq.     698.15  E(vib)   ...       0.07 
freq.     753.55  E(vib)   ...       0.06 
freq.    1023.19  E(vib)   ...       0.02 
freq.    1102.01  E(vib)   ...       0.02 
freq.    1115.76  E(vib)   ...       0.01 
freq.    1145.26  E(vib)   ...       0.01 
freq.    1207.74  E(vib)   ...       0.01 
freq.    1291.96  E(vib)   ...       0.01 
freq.    1424.79  E(vib)   ...       0.00 
freq.    1817.09  E(vib)   ...       0.00 
freq.    3489.15  E(vib)   ...       0.00 

------------
INNER ENERGY
------------

The inner energy is: U= E(el) + E(ZPE) + E(vib) + E(rot) + E(trans)
    E(el)   - is the total energy from the electronic structure calculation
              = E(kin-el) + E(nuc-el) + E(el-el) + E(nuc-nuc)
    E(ZPE)  - the the zero temperature vibrational energy from the frequency calculation
    E(vib)  - the the finite temperature correction to E(ZPE) due to population
              of excited vibrational states
    E(rot)  - is the rotational thermal energy
    E(trans)- is the translational thermal energy

Summary of contributions to the inner energy U:
Electronic energy                ...   -664.12018540 Eh
Zero point energy                ...      0.04545270 Eh      28.52 kcal/mol
Thermal vibrational correction   ...      0.00537953 Eh       3.38 kcal/mol
Thermal rotational correction    ...      0.00141627 Eh       0.89 kcal/mol
Thermal translational correction ...      0.00141627 Eh       0.89 kcal/mol
-----------------------------------------------------------------------
Total thermal energy                   -664.06652063 Eh


Summary of corrections to the electronic energy:
(perhaps to be used in another calculation)
Total thermal correction                  0.00821207 Eh       5.15 kcal/mol
Non-thermal (ZPE) correction              0.04545270 Eh      28.52 kcal/mol
-----------------------------------------------------------------------
Total correction                          0.05366478 Eh      33.68 kcal/mol


--------
ENTHALPY
--------

The enthalpy is H = U + kB*T
                kB is Boltzmann's constant
Total thermal energy              ...   -664.06652063 Eh 
Thermal Enthalpy correction       ...      0.00094421 Eh       0.59 kcal/mol
-----------------------------------------------------------------------
Total Enthalpy                    ...   -664.06557642 Eh


Note: Only C1 symmetry has been detected, increase convergence thresholds 
      if your molecule has a higher symmetry. Symmetry factor of 1.0 is   
      used for the rotational entropy correction. 
 

Note: Rotational entropy computed according to Herzberg 
Infrared and Raman Spectra, Chapter V,1, Van Nostrand Reinhold, 1945 
Point Group:  C1, Symmetry Number:   1  
Rotational constants in cm-1:     0.086245     0.043242     0.038900 

Vibrational entropy computed according to the QRRHO of S. Grimme
Chem.Eur.J. 2012 18 9955 using a reference frequency of 100.0 cm-1


-------
ENTROPY
-------

The entropy contributions are T*S = T*(S(el)+S(vib)+S(rot)+S(trans))
     S(el)   - electronic entropy
     S(vib)  - vibrational entropy
     S(rot)  - rotational entropy
     S(trans)- translational entropy
The entropies will be listed as multiplied by the temperature to get
units of energy

Electronic entropy                ...      0.00000000 Eh      0.00 kcal/mol
Vibrational entropy               ...      0.00931700 Eh      5.85 kcal/mol
Rotational entropy                ...      0.01368327 Eh      8.59 kcal/mol
Translational entropy             ...      0.01939778 Eh     12.17 kcal/mol
-----------------------------------------------------------------------
Final entropy term                ...      0.04239805 Eh     26.61 kcal/mol

In case the symmetry of your molecule has not been determined correctly
or in case you have a reason to use a different symmetry number we print 
out the resulting rotational entropy values for sn=1,12:

 non-linear molecules -----------------------------------
|  sn= 1 | S(rot)=       0.01368327 Eh      8.59 kcal/mol|
|  sn= 2 | S(rot)=       0.01302881 Eh      8.18 kcal/mol|
|  sn= 3 | S(rot)=       0.01264598 Eh      7.94 kcal/mol|
|  sn= 4 | S(rot)=       0.01237436 Eh      7.77 kcal/mol|
|  sn= 5 | S(rot)=       0.01216367 Eh      7.63 kcal/mol|
|  sn= 6 | S(rot)=       0.01199152 Eh      7.52 kcal/mol|
|  sn= 7 | S(rot)=       0.01184598 Eh      7.43 kcal/mol|
|  sn= 8 | S(rot)=       0.01171990 Eh      7.35 kcal/mol|
|  sn= 9 | S(rot)=       0.01160869 Eh      7.28 kcal/mol|
|  sn=10 | S(rot)=       0.01150921 Eh      7.22 kcal/mol|
|  sn=11 | S(rot)=       0.01141922 Eh      7.17 kcal/mol|
|  sn=12 | S(rot)=       0.01133707 Eh      7.11 kcal/mol|
 linear molecules ---------------------------------------
|  Dinfh | S(rot)=       0.00839133 Eh      5.27 kcal/mol|
|  Cinfv | S(rot)=       0.00904579 Eh      5.68 kcal/mol|
 --------------------------------------------------------


-------------------
GIBBS FREE ENERGY
-------------------

The Gibbs free energy is G = H - T*S

Total enthalpy                    ...   -664.06557642 Eh 
Total entropy correction          ...     -0.04239805 Eh    -26.61 kcal/mol
-----------------------------------------------------------------------
Final Gibbs free energy         ...   -664.10797447 Eh

For completeness - the Gibbs free energy minus the electronic energy
G-E(el)                           ...      0.01221094 Eh      7.66 kcal/mol


Maximum memory used throughout the entire PROP-calculation: 54.5 MB

--------------------------------
SUGGESTED CITATIONS FOR THIS RUN
--------------------------------

Below you find a list of papers that are relevant to this ORCA run
We neither can nor want to force you to cite these papers, but we appreciate if you do
You receive ORCA, which is the product of decades of hard work by many enthusiastic individuals, for free
The only thing we kindly ask in return is that you cite our papers,
We deeply appreciate it, if you show your appreciation for ORCA by not just citing the generic ORCA reference.

Please note that relegating all ORCA citations to the supporting information does *not* help us.
SI sections are not indexed - citations you put there will not count into any citation statistics
But we need these citations in order to attract the funding resources that allow us to do what we are doing

Therefore, if you are a happy ORCA user, please consider citing a few of the papers listed below in the main body of your paper

In addition to the list printed below, the program has created the file 3_3_3_2_2_pentafluoropropanoic_acid_defluorinated.bibtex that contains the list in bibtex format
You can import this file easily into all common literature databanks and citation aid programs


List of essential papers. We consider these as the minimum necessary citations

  1. Neese, F.
     Software update: the ORCA program system, version 6.0
     WIRES Comput. Molec. Sci. 2025 15(1), e70019
     doi.org/10.1002/wcms.7019

List of papers to cite with high priority. The work reported in these papers was absolutely
necessary for this run to complete.
Our perspective: the developers of density functionals and basis sets usually get cited in chemistry papers
Good! But without the algorithms to do something with them, the functionals or basis sets would not do anything.
Hence, in our opinion, the algorithm design and method developments papers are equally worthy of getting cited

  1. Neese, F.
     An improvement of the resolution of the identity approximation for the formation of the Coulomb matrix
     J. Comp. Chem. 2003 24(14), 1740-1747
     doi.org/10.1002/jcc.10318
  2. Bykov, D.; Petrenko, T.; Izsak, R.; Kossmann, S.; Becker, U.; Valeev, E.; Neese, F.
     Efficient implementation of the analytic second derivatives of Hartree-Fock and hybrid DFT energies: a detailed analysis of different approximations
     Molec. Phys. 2015 113 , 1961-1977
     doi.org/10.1080/00268976.2015.1025114
  3. Caldeweyher, E.; Bannwarth, C.; Grimme, S.
     Extension of the D3 dispersion coefficient model
     J. Chem. Phys. 2017 147 , 034112
     doi.org/10.1063/1.4993215
  4. Caldeweyher, E.; Ehlert, S.; Hansen, A.; Neugebauer, H.; Spicher, S.; Bannwarth, C.; Grimme, S.
     A generally applicable atomic-charge dependent London dispersion correction
     J. Chem. Phys. 2019 150 , 154122
     doi.org/10.1063/1.5090222
  5. Garcia-Rates, M.; Neese, F.
     Efficient implementation of the analytical second derivatives of hartree-fock and hybrid DFT energies within the framework of the conductor-like polarizable continuum model
     J. Comput. Chem. 2019 40 , 1816-1828
     doi.org/10.1002/jcc.25833
  6. Caldeweyher, E.; Mewes, J.; Ehlert, S.; Grimme, S.
     Extension and evaluation of the D4 London-dispersion model for periodic systems
     Phys. Chem. Chem. Phys. 2020 22(16), 8499-8512
     doi.org/10.1039/D0CP00502A
  7. Garcia-Rates, M.; Neese, F.
     Effect of the Solute Cavity on the Solvation Energy and its Derivatives within the Framework of the Gaussian Charge Scheme
     J. Comput. Chem. 2020 41 , 922-939
     doi.org/10.1002/jcc.26139
  8. Neese, F.
     The SHARK Integral Generation and Digestion System
     J. Comp. Chem. 2022 44(3), 381
     doi.org/10.1002/jcc.26942
  9. Wittmann, L.; Gordiy, I.; Friede, M.; Helmich-Paris, B.; Grimme, S.; Hansen, A.; Bursch, M.
     Extension of the D3 and D4 London Dispersion Corrections to the full Actinides Series
     Phys. Chem. Chem. Phys. 2024 26(32), 21379-21394
     doi.org/10.1039/D4CP01514B

List of suggested additional citations. These are papers that are important in the 'surrounding' of 
of this run, or papers that preceded the highly important papers. If you like your results we are grateful for a citation.

  1. Neese, F.
     The ORCA program system
     WIRES Comput. Molec. Sci. 2012 2(1), 73-78
     doi.org/10.1002/wcms.81
  2. Neese, F.
     Software update: the ORCA program system, version 4.0
     WIRES Comput. Molec. Sci. 2018 8(1), 1-6
     doi.org/10.1002/wcms.1327
  3. Neese, F.; Wennmohs, F.; Becker, U.; Riplinger, C.
     The ORCA quantum chemistry program package
     J. Chem. Phys. 2020 152(22), 224108
     doi.org/10.1063/5.0004608
  4. Neese, F.
     Software update: The ORCA program system—Version 5.0
     WIRES Comput. Molec. Sci. 2022 12(1), e1606
     doi.org/10.1002/wcms.1606

List of optional additional citations

  1. Neese, F.
     Approximate second-order SCF convergence for spin unrestricted wavefunctions
     Chem. Phys. Lett. 2000 325(1-3), 93-98
     doi.org/10.1016/s0009-2614(00)00662-x

Timings for individual modules:

Sum of individual times          ...      999.291 sec (=  16.655 min)
Startup calculation              ...       16.145 sec (=   0.269 min)   1.6 %
SCF iterations                   ...      482.212 sec (=   8.037 min)  48.3 %
Property integrals               ...      127.908 sec (=   2.132 min)  12.8 %
SCF Response                     ...       79.683 sec (=   1.328 min)   8.0 %
Property calculations            ...       72.748 sec (=   1.212 min)   7.3 %
SCF Gradient evaluation          ...      220.547 sec (=   3.676 min)  22.1 %
Geometry relaxation              ...        0.048 sec (=   0.001 min)   0.0 %
                             ****ORCA TERMINATED NORMALLY****
TOTAL RUN TIME: 0 days 0 hours 16 minutes 41 seconds 654 msec
