
                                 *****************
                                 * O   R   C   A *
                                 *****************

                                            #,                                       
                                            ###                                      
                                            ####                                     
                                            #####                                    
                                            ######                                   
                                           ########,                                 
                                     ,,################,,,,,                         
                               ,,#################################,,                 
                          ,,##########################################,,             
                       ,#########################################, ''#####,          
                    ,#############################################,,   '####,        
                  ,##################################################,,,,####,       
                ,###########''''           ''''###############################       
              ,#####''   ,,,,##########,,,,          '''####'''          '####       
            ,##' ,,,,###########################,,,                        '##       
           ' ,,###''''                  '''############,,,                           
         ,,##''                                '''############,,,,        ,,,,,,###''
      ,#''                                            '''#######################'''  
     '                                                          ''''####''''         
             ,#######,   #######,   ,#######,      ##                                
            ,#'     '#,  ##    ##  ,#'     '#,    #''#        ,####,    ,#,          
            ##       ##  ##   ,#'  ##            #'  '#       #'       ,# #          
            ##       ##  #######   ##           ,######,      #####,      #          
            '#,     ,#'  ##    ##  '#,     ,#' ,#      #,     #,   #      #          
             '#######'   ##     ##  '#######'  #'      '#     '####' #    #          



                #########################################################
                #                        -***-                          #
                #          Department of theory and spectroscopy        #
                #                                                       #
                #                      Frank Neese                      #
                #                                                       #
                #     Directorship, Architecture, Infrastructure        #
                #                    SHARK, DRIVERS                     #
                #        Core code/Algorithms in most modules           #
                #                                                       #
                #        Max Planck Institute fuer Kohlenforschung      #
                #                Kaiser Wilhelm Platz 1                 #
                #                 D-45470 Muelheim/Ruhr                 #
                #                      Germany                          #
                #                                                       #
                #                  All rights reserved                  #
                #                        -***-                          #
                #########################################################


                         Program Version 6.1.0  -  RELEASE   -
                                (GIT: $679e74b$)
                          ($2025-06-10 18:02:51 +0200$)


 With contributions from (in alphabetic order):
[Max-Planck-Institut fuer Kohlenforschung]                               
  Daniel Aravena         : Magnetic Suceptibility                        
  Michael Atanasov       : Ab Initio Ligand Field Theory (pilot matlab implementation)
  Alexander A. Auer      : GIAO ZORA, VPT2 properties, NMR spectrum      
  Ute Becker             : All parallelization in ORCA, NUMFREQ, NUMCALC 
  Giovanni Bistoni       : ED, misc. LED, open-shell LED, HFLD           
  Dmytro Bykov           : pre 5.0 version of the SCF Hessian            
  Marcos Casanova-Páez   : Triplet and SCS-CIS(D). UHF-(DLPNO)-IP/EA/STEOM-CCSD. UHF-CVS-IP/STEOM-CCSD   
  Vijay G. Chilkuri      : MRCI spin determinant printing, contributions to CSF-ICE 
  Pauline Colinet        : FMM embedding                                 
  Dipayan Datta          : RHF DLPNO-CCSD density                        
  Achintya Kumar Dutta   : EOM-CC, STEOM-CC                              
  Nicolas Foglia         : Exact transition moments, OPA infrastructure, MCD improvements    
  Dmitry Ganyushin       : Spin-Orbit,Spin-Spin,Magnetic field MRCI      
  Miquel Garcia-Rates    : C-PCM and meta-GGA Hessian, CCSD/C-PCM, Gaussian charge scheme 
  Tiago L. C. Gouveia    : GS-ROHF, GS-ROCIS                             
  Yang Guo               : DLPNO-NEVPT2, F12-NEVPT2, CIM, IAO-localization        
  Andreas Hansen         : Spin unrestricted coupled pair/coupled cluster methods 
  Ingolf Harden          : AUTO-CI MPn and infrastructure                
  Benjamin Helmich-Paris : MC-RPA, TRAH-(SCF,CASSCF), AVAS, COSX integrals, SCF dyn. polar., MC-PDFT, srDFT 
  Lee Huntington         : MR-EOM, pCC                                   
  Robert Izsak           : Overlap fitted RIJCOSX, COSX-SCS-MP3, EOM     
  Riya Kayal             : Wick's Theorem for AUTO-CI, AUTO-CI UHF-CCSDT 
  Emily Kempfer          : AUTO-CI RHF CISDT and CCSDT, approximate NEVPT4
  Christian Kollmar      : KDIIS, OOCD, Brueckner-CCSD(T), CCSD density, CASPT2, CASPT2-K, improved NEVPT2 
  Axel Koslowski         : Symmetry handling                             
  Simone Kossmann        : meta-GGA functionals, TD-DFT gradient, OOMP2, (MP2 Hessian; deprecated post 5.0) 
  Lucas Lang             : DCDCAS, Hyperfine gauge corrections, ICE-SOC+SSC
  Marvin Lechner         : AUTO-CI (C++ implementation), FIC-MRCC        
  Spencer Leger          : CASSCF response                               
  Dagmar Lenk            : GEPOL surface, SMD, ORCA-2-JSON               
  Dimitrios Liakos       : Extrapolation schemes; Compound Job, Property file
  Dimitrios Manganas     : Further ROCIS development; embedding schemes. LFT, Crystal Embedding 
  Dimitrios Pantazis     : SARC Basis sets                               
  Anastasios Papadopoulos: AUTO-CI, single reference methods and gradients 
  Taras Petrenko         : pre 6.0 DFT Hessian and TD-DFT gradient,  ECA, NRVS 
  Petra Pikulova         : Analytic Raman intensities                    
  Peter Pinski           : DLPNO-MP2, DLPNO-MP2 Gradient                 
  Shashank Vittal Rao    : ES-AILFT, MagRelax                            
  Christoph Reimann      : Effective Core Potentials                     
  Marius Retegan         : Local ZFS, SOC                                
  Christoph Riplinger    : Optimizer, TS searches, QM/MM, DLPNO-CCSD(T), (RO)-DLPNO pert. Triples 
  Michael Roemelt        : Original ROCIS implementation, recursive CI coupling coefficients
  Masaaki Saitow         : Open-shell DLPNO-CCSD energy and density      
  Barbara Sandhoefer     : DKH picture change effects                    
  Yorick L. A. Schmerwitz: GMF and freeze-and-release deltaSCF, NEB S-IDPP initial path                    
  Kantharuban Sivalingam : CASSCF convergence/infrastructure, NEVPT2, NEVPT3, NEVPT4(SD), FIC-MRCI and CEPA variants
  Bernardo de Souza      : ESD, SOC TD-DFT                               
  Georgi L. Stoychev     : AutoAux, RI-MP2 NMR, DLPNO-MP2 response, X2C  
  Van Anh Tran           : RI-MP2 g-tensors                              
  Willem Van den Heuvel  : Paramagnetic NMR                              
  Zikuan Wang            : NOTCH, Electric field optimization            
  Frank Wennmohs         : Technical directorship and infrastructure     
  Hang Xu                : AUTO-CI-Response properties                   
                                                                         
[FACCTs GmbH]                                                            
  Markus Bursch, Nicolas Foglia, Miquel Garcia-Rates, Ingolf Harden, Hagen Neugebauer, Anastasios Papadopoulos, 
  Christoph Riplinger, Bernardo de Souza, Georgi L. Stoychev                                                    
                                                                 
  APM, various basis sets, CI-OPT, improved COSX, DLPNO-Multilevel,           
  DOCKER, DRACO, updates on ESD, Fragmentator, GOAT, IRC, LR-CPCM, L-BFGS, MBIS, meta-GGA TD-DFT gradient, ML-optimized integration grids, 
  MM, NACMEs, nearIR, NEB, NEB-TS, NL-DFT gradient (VV10), 2- and 3-layer-ONIOM, interface openCOSMO-RS, QMMM,   
  Crystal-QMMM, RESP, rigid body optimization, SF, symmetry and pop. for TD-DFT, various functionals, SOLVATOR                                   
                                                                         
[Other institutions]                                                     
  V. Asgeirsson          : NEB                                           
  Christoph Bannwarth    : sTDA-DFT, sTD-DFT, PBEh-3c, B97-3c, D3        
  Giovanni Bistoni       : ETS/NOCV, ADLD/ADEX, COVALED                  
  Martin Brehm           : Molecular dynamics                            
  Ronald Cardenas        : ETS/NOCV                                      
  Martina Colucci        : COVALED                                       
  Sebastian Ehlert       : rSCAN, r2SCAN, r2SCAN-3c, D4, dhf basis sets  
  Marvin Friede          : D4 for Fr, Ra, Ac-Lr                          
  Lars Goerigk           : TD-DFT with DH, B97 family of functionals     
  Stefan Grimme          : VdW corrections, initial TS optimization, DFT functionals, gCP, sTDA/sTD-DF 
  Waldemar Hujo          : DFT-NL                                        
  H. Jonsson             : NEB                                           
  Holger Kruse           : gCP                                           
  Marcel Mueller         : wB97X-3c, vDZP basis set                      
  Hagen Neugebauer       : wr2SCAN, Native XTB                           
  Gianluca Regni         : ADLD/ADEX                                     
  Tobias Risthaus        : pre 6.0 range-separated hybrid DFT and stability analysis
  Lukas Wittmann         : regularized MP2, r2SCAN double-hybrids, wr2SCAN        
                                                                         
We gratefully acknowledge several colleagues who have allowed us to      
interface, adapt or use parts of their codes:                            
  Ed Valeev, F. Pavosevic, A. Kumar             : LibInt (2-el integral package), F12 methods 
  Garnet Chan, S. Sharma, J. Yang, R. Olivares  : DMRG                   
  Ulf Ekstrom                                   : XCFun DFT Library      
  Mihaly Kallay                                 : mrcc  (arbitrary order and MRCC methods)
  Frank Weinhold                                : gennbo (NPA and NBO analysis)           
  Simon Mueller                                 : openCOSMO-RS                            
  Christopher J. Cramer and Donald G. Truhlar   : smd solvation model                     
  S Lehtola, MJT Oliveira, MAL Marques          : LibXC Library                           
  Liviu Ungur et al                             : ANISO software                          


 Your calculation uses the libint2 library for the computation of 2-el integrals
 For citations please refer to: http://libint.valeyev.net

 Your ORCA version has been built with support for libXC version: 7.0.0
 For citations please refer to: https://libxc.gitlab.io

 This ORCA versions uses:
   CBLAS   interface :  Fast vector & matrix operations
   LAPACKE interface :  Fast linear algebra routines
   SCALAPACK package :  Parallel linear algebra routines
   Shared memory     :  Shared parallel matrices
   BLAS/LAPACK       :  OpenBLAS 0.3.29  USE64BITINT DYNAMIC_ARCH NO_AFFINITY Zen SINGLE_THREADED
        Core in use  :  Zen
   Copyright (c) 2011-2014, The OpenBLAS Project


  ***********************************
  * Starting time: Wed Nov 26 23:08:28 2025
  * Host name:     twstudio
  * Process ID:    96896
  * Working dir.:  /mnt/sda3/data1/Studium-PC/PFAS-Breaker/C-F-Bonds_Gibbs/IonicFluorination
  ***********************************

Your calculation utilizes the atom-pairwise dispersion correction
based on EEQ partial charges (D4)


Your calculation utilizes the SMD solvation module
Please cite in your paper:
Marenich, A. V.; Cramer, C. J.; Truhlar, D. G. J. Phys. Chem. B 2009, 113, 6378 

Warning: RI is on but no J-basis has been assigned. Assigning Def2/J (nothing to worry about!)
================================================================================

----- Orbital basis set information -----
Your calculation utilizes the basis: def2-TZVPP
   F. Weigend and R. Ahlrichs, Phys. Chem. Chem. Phys. 7, 3297 (2005).

----- AuxJ basis set information -----
Your calculation utilizes the auxiliary basis: def2/J
   H-Rn: F. Weigend, Phys. Chem. Chem. Phys. 8, 1057 (2006).
   Fr-Lr: K. Eichkorn, F. Weigend, O. Treutler, R. Ahlrichs; Theor. Chem. Acc. 97, 119 (1997).

================================================================================
                                        WARNINGS
                       Please study these warnings very carefully!
================================================================================


WARNING: Geometry Optimization
  ===> : Switching off AutoStart
         For restart on a previous wavefunction, please use MOREAD

================================================================================
                                       INPUT FILE
================================================================================
NAME = 3_3_3_trifluoropropanoic_acid_defluorinated.inp
|  1> !PBE D4 def2-TZVPP OPT FREQ SMD(WATER)
|  2> 
|  3> %scf
|  4> MaxCore 28672
|  5> end
|  6> 
|  7> * xyz 1 1
|  8> C     -6.42651    0.63337    0.27928
|  9> C     -5.20918    1.55527    0.06664
| 10> O     -3.00034    1.56017   -0.78736
| 11> H     -5.45458    2.31017   -0.68479
| 12> O     -3.81698   -0.40267   -0.19837
| 13> C     -3.97217    0.79017   -0.36684
| 14> H     -3.31785    2.47920   -0.79844
| 15> H     -4.98580    2.08592    0.99583
| 16> F     -7.39015    1.30332    0.93694
| 17> F     -6.94847    0.27239   -0.90724
| 18> **                         ****END OF INPUT****
================================================================================

                       *****************************
                       * Geometry Optimization Run *
                       *****************************

Geometry optimization settings:
Update method            Update   .... BFGS
Choice of coordinates    CoordSys .... (2022) Redundant Internals
Initial Hessian          InHess   .... Almloef's Model
Max. no of cycles        MaxIter  .... 50

Convergence Tolerances:
Energy Change            TolE     ....  5.0000e-06 Eh
Max. Gradient            TolMAXG  ....  3.0000e-04 Eh/bohr
RMS Gradient             TolRMSG  ....  1.0000e-04 Eh/bohr
Max. Displacement        TolMAXD  ....  4.0000e-03 bohr
RMS Displacement         TolRMSD  ....  2.0000e-03 bohr
Strict Convergence                .... False

------------------------------------------------------------------------------
                        ORCA OPTIMIZATION COORDINATE SETUP
------------------------------------------------------------------------------

The optimization will be done in redundant internal coordinates (2022)
Making redundant internal coordinates   ...  (2022 redundants) done
Evaluating the initial hessian          ...  (Almloef) done
Evaluating the coordinates              ...  done
Calculating the B-matrix                .... done
Calculating the G-matrix                .... done
The number of degrees of freedom        ....   34

    -----------------------------------------------------------------
                    Redundant Internal Coordinates


    -----------------------------------------------------------------
         Definition                    Initial Value    Approx d2E/dq
    -----------------------------------------------------------------
      1. B(C   1,C   0)                  1.5418         0.357786   
      2. B(H   3,C   1)                  1.0930         0.356097   
      3. B(C   5,C   1)                  1.5177         0.390812   
      4. B(C   5,O   4)                  1.2146         1.065767   
      5. B(C   5,O   2)                  1.3093         0.752789   
      6. B(H   6,O   2)                  0.9724         0.496812   
      7. B(H   7,C   1)                  1.0931         0.356014   
      8. B(F   8,C   0)                  1.3453         0.612649   
      9. B(F   9,C   0)                  1.3456         0.612125   
     10. A(C   1,C   0,F   8)          109.5852         0.388686   
     11. A(C   1,C   0,F   9)          110.1866         0.388628   
     12. A(F   8,C   0,F   9)          106.6665         0.422758   
     13. A(H   3,C   1,C   5)          109.5602         0.326133   
     14. A(C   0,C   1,H   3)          109.3003         0.321441   
     15. A(C   0,C   1,H   7)          109.5355         0.321429   
     16. A(C   0,C   1,C   5)          112.4263         0.363471   
     17. A(H   3,C   1,H   7)          107.1566         0.289810   
     18. A(C   5,C   1,H   7)          108.7203         0.326120   
     19. A(C   5,O   2,H   6)          108.4894         0.379727   
     20. A(O   2,C   5,O   4)          121.8214         0.489915   
     21. A(C   1,C   5,O   4)          124.0273         0.437499   
     22. A(C   1,C   5,O   2)          113.5933         0.411127   
     23. D(H   7,C   1,C   0,F   8)     45.4408         0.010000   
     24. D(C   5,C   1,C   0,F   9)    -76.4974         0.010000   
     25. D(H   3,C   1,C   0,F   8)    -71.6820         0.010000   
     26. D(C   5,C   1,C   0,F   8)    166.4282         0.010000   
     27. D(H   3,C   1,C   0,F   9)     45.3924         0.010000   
     28. D(O   2,C   5,C   1,H   3)     46.5071         0.011361   
     29. D(O   4,C   5,O   2,H   6)   -176.4023         0.043074   
     30. D(O   2,C   5,C   1,C   0)    168.2492         0.011361   
     31. D(C   1,C   5,O   2,H   6)     -4.6457         0.043074   
     32. D(O   4,C   5,C   1,H   3)   -141.9460         0.011361   
     33. D(O   4,C   5,C   1,C   0)    -20.2039         0.011361   
     34. D(O   2,C   5,C   1,H   7)    -70.2969         0.011361   
    -----------------------------------------------------------------

Number of atoms                         .... 10
Number of degrees of freedom            .... 34


         *************************************************************
         *                GEOMETRY OPTIMIZATION CYCLE   1            *
         *************************************************************
---------------------------------
CARTESIAN COORDINATES (ANGSTROEM)
---------------------------------
  C     -6.426510    0.633370    0.279280
  C     -5.209180    1.555270    0.066640
  O     -3.000340    1.560170   -0.787360
  H     -5.454580    2.310170   -0.684790
  O     -3.816980   -0.402670   -0.198370
  C     -3.972170    0.790170   -0.366840
  H     -3.317850    2.479200   -0.798440
  H     -4.985800    2.085920    0.995830
  F     -7.390150    1.303320    0.936940
  F     -6.948470    0.272390   -0.907240

----------------------------
CARTESIAN COORDINATES (A.U.)
----------------------------
  NO LB      ZA    FRAG     MASS         X           Y           Z
   0 C     6.0000    0    12.011  -12.144344    1.196896    0.527763
   1 C     6.0000    0    12.011   -9.843924    2.939034    0.125931
   2 O     8.0000    0    15.999   -5.669821    2.948294   -1.487895
   3 H     1.0000    0     1.008  -10.307662    4.365589   -1.294066
   4 O     8.0000    0    15.999   -7.213047   -0.760936   -0.374865
   5 C     6.0000    0    12.011   -7.506313    1.493205   -0.693227
   6 H     1.0000    0     1.008   -6.269828    4.685009   -1.508833
   7 H     1.0000    0     1.008   -9.421797    3.941818    1.881846
   8 F     9.0000    0    18.998  -13.965360    2.462918    1.770560
   9 F     9.0000    0    18.998  -13.130705    0.514743   -1.714435

--------------------------------
INTERNAL COORDINATES (ANGSTROEM)
--------------------------------
 C      0   0   0     0.000000000000     0.00000000     0.00000000
 C      1   0   0     1.541754749790     0.00000000     0.00000000
 O      2   1   0     2.368187947693   141.94502310     0.00000000
 H      2   1   3     1.093042640934   109.30034335   112.25381469
 O      3   2   1     2.206026059524    63.67904700   337.92590445
 C      5   3   2     1.214633007373    30.28439753     5.39078899
 H      3   2   1     0.972394728184    72.63316156   157.60149322
 H      2   1   3     1.093106629291   109.53552780   229.37658261
 F      1   2   3     1.345344464329   109.58519586   176.06422311
 F      1   2   3     1.345577389971   110.18660835   293.13857891

---------------------------
INTERNAL COORDINATES (A.U.)
---------------------------
 C      0   0   0     0.000000000000     0.00000000     0.00000000
 C      1   0   0     2.913494242775     0.00000000     0.00000000
 O      2   1   0     4.475226654793   141.94502310     0.00000000
 H      2   1   3     2.065551244063   109.30034335   112.25381469
 O      3   2   1     4.168785096794    63.67904700   337.92590445
 C      5   3   2     2.295323737156    30.28439753     5.39078899
 H      3   2   1     1.837559730337    72.63316156   157.60149322
 H      2   1   3     2.065672164534   109.53552780   229.37658261
 F      1   2   3     2.542332593368   109.58519586   176.06422311
 F      1   2   3     2.542772759041   110.18660835   293.13857891

---------------------
BASIS SET INFORMATION
---------------------
There are 4 groups of distinct atoms

 Group   1 Type C   : 11s6p2d1f contracted to 5s3p2d1f pattern {62111/411/11/1}
 Group   2 Type O   : 11s6p2d1f contracted to 5s3p2d1f pattern {62111/411/11/1}
 Group   3 Type H   : 5s2p1d contracted to 3s2p1d pattern {311/11/1}
 Group   4 Type F   : 11s6p2d1f contracted to 5s3p2d1f pattern {62111/411/11/1}

Atom   0C    basis set group =>   1
Atom   1C    basis set group =>   1
Atom   2O    basis set group =>   2
Atom   3H    basis set group =>   3
Atom   4O    basis set group =>   2
Atom   5C    basis set group =>   1
Atom   6H    basis set group =>   3
Atom   7H    basis set group =>   3
Atom   8F    basis set group =>   4
Atom   9F    basis set group =>   4
---------------------------------
AUXILIARY/J BASIS SET INFORMATION
---------------------------------
There are 4 groups of distinct atoms

 Group   1 Type C   : 12s5p4d2f1g contracted to 6s4p3d1f1g pattern {711111/2111/211/2/1}
 Group   2 Type O   : 12s5p4d2f1g contracted to 6s4p3d1f1g pattern {711111/2111/211/2/1}
 Group   3 Type H   : 5s2p1d contracted to 3s1p1d pattern {311/2/1}
 Group   4 Type F   : 12s5p4d2f1g contracted to 6s4p3d1f1g pattern {711111/2111/211/2/1}

Atom   0C    basis set group =>   1
Atom   1C    basis set group =>   1
Atom   2O    basis set group =>   2
Atom   3H    basis set group =>   3
Atom   4O    basis set group =>   2
Atom   5C    basis set group =>   1
Atom   6H    basis set group =>   3
Atom   7H    basis set group =>   3
Atom   8F    basis set group =>   4
Atom   9F    basis set group =>   4
------------------------------------------------------------------------------
                             ORCA STARTUP CALCULATIONS
                           -- RI-GTO INTEGRALS CHOSEN --
------------------------------------------------------------------------------
------------------------------------------------------------------------------
                   ___                                                        
                  /   \      - P O W E R E D   B Y -                         
                 /     \                                                     
                 |  |  |   _    _      __       _____    __    __             
                 |  |  |  | |  | |    /  \     |  _  \  |  |  /  |          
                  \  \/   | |  | |   /    \    | | | |  |  | /  /          
                 / \  \   | |__| |  /  /\  \   | |_| |  |  |/  /          
                |  |  |   |  __  | /  /__\  \  |    /   |      \           
                |  |  |   | |  | | |   __   |  |    \   |  |\   \          
                \     /   | |  | | |  |  |  |  | |\  \  |  | \   \       
                 \___/    |_|  |_| |__|  |__|  |_| \__\ |__|  \__/        
                                                                              
                      - O R C A' S   B I G   F R I E N D -                    
                                      &                                       
                       - I N T E G R A L  F E E D E R -                       
                                                                              
 v1 FN, 2020, v2 2021, v3 2022-2024                                           
------------------------------------------------------------------------------


----------------------
SHARK INTEGRAL PACKAGE
----------------------

Number of atoms                             ...     10
Number of basis functions                   ...    259
Number of shells                            ...     95
Maximum angular momentum                    ...      3
Integral batch strategy                     ... SHARK/LIBINT Hybrid
RI-J (if used) integral strategy            ... SPLIT-RIJ (Revised 2003 algorithm where possible)
Printlevel                                  ...      1
Contraction scheme used                     ... SEGMENTED contraction
Prescreening option                         ... SCHWARTZ
   Thresh                                   ... 2.500e-11
   Tcut                                     ... 2.500e-12
   Tpresel                                  ... 2.500e-12 
Coulomb Range Separation                    ... NOT USED
Exchange Range Separation                   ... NOT USED
Multipole approximations                    ... NOT USED
Finite Nucleus Model                        ... NOT USED
CABS basis                                  ... NOT available
Auxiliary Coulomb fitting basis             ... AVAILABLE
   # of basis functions in Aux-J            ...    376
   # of shells in Aux-J                     ...    120
   Maximum angular momentum in Aux-J        ...      4
Auxiliary J/K fitting basis                 ... NOT available
Auxiliary Correlation fitting basis         ... NOT available
Auxiliary 'external' fitting basis          ... NOT available

Checking pre-screening integrals            ... done (  0.0 sec) Dimension = 95
   => SHARK Basis and OBASIS are compatible. Storing Pre-screening
Shell pair information
Shell pair cut-off parameter TPreSel        ...   2.5e-12
Total number of shell pairs                 ...      4560
Shell pairs after pre-screening             ...      4130
Total number of primitive shell pairs       ...     13693
Primitive shell pairs kept                  ...      9428
          la=0 lb=0:    853 shell pairs
          la=1 lb=0:   1102 shell pairs
          la=1 lb=1:    368 shell pairs
          la=2 lb=0:    656 shell pairs
          la=2 lb=1:    433 shell pairs
          la=2 lb=2:    138 shell pairs
          la=3 lb=0:    269 shell pairs
          la=3 lb=1:    179 shell pairs
          la=3 lb=2:    107 shell pairs
          la=3 lb=3:     25 shell pairs

Checking whether 4 symmetric matrices of dimension 259 fit in memory
:Max Core in MB      =  28672.00
 MB in use           =      8.58
 MB left             =  28663.42
 MB needed           =      1.03
 Data fit in memory  = YES
Calculating RI/J V-Matrix + Cholesky decomp.... done (  0.0 sec)
Calculating Nuclear repulsion               ... done (  0.0 sec) ENN=    303.950944945960 Eh

Diagonalization of the overlap matrix:
Smallest eigenvalue                        ... 2.498e-04
Time for diagonalization                   ...    0.008 sec
Threshold for overlap eigenvalues          ... 1.000e-07
Number of eigenvalues below threshold      ... 0
Time for construction of square roots      ...    0.004 sec
Total time needed                          ...    0.012 sec

-------------------
DFT GRID GENERATION
-------------------

General Integration Accuracy     IntAcc      ... 4.388
Radial Grid Type                 RadialGrid  ... OptM3 with GC (2021)
Angular Grid (max. ang.)         AngularGrid ... 4 (Lebedev-302)
Angular grid pruning method      GridPruning ... 4 (adaptive)
Weight generation scheme         WeightScheme... mBecke (2022)
Basis function cutoff            BFCut       ... 1.0000e-11
Integration weight cutoff        WCut        ... 1.0000e-14
Partially contracted basis set               ... off
Rotationally invariant grid construction     ... off
Angular grids for H and He will be reduced by one unit

Total number of grid points                  ...    52304
Total number of batches                      ...      823
Average number of points per batch           ...       63
Average number of grid points per atom       ...     5230
Grids setup in   0.4 sec
Initializing property integral containers    ... done (  0.0 sec)

SHARK setup successfully completed in   0.6 seconds

Maximum memory used throughout the entire STARTUP-calculation: 32.6 MB
-------------------------------------------------------------------------------
                                 ORCA GUESS
                   Start orbitals & Density for SCF / CASSCF
-------------------------------------------------------------------------------

------------
SCF SETTINGS
------------
Hamiltonian:
 Density Functional     Method          .... DFT(GTOs)
 Exchange Functional    Exchange        .... PBE
   PBE kappa parameter   XKappa         ....  0.804000
   PBE mue parameter    XMuePBE         ....  0.219520
 Correlation Functional Correlation     .... PBE
   PBE beta parameter  CBetaPBE         ....  0.066725
 LDA part of GGA corr.  LDAOpt          .... PW91-LDA
 Gradients option       PostSCFGGA      .... off
   NL short-range parameter             ....  6.400000
 RI-approximation to the Coulomb term is turned on
   Number of AuxJ basis functions       .... 376


General Settings:
 Integral files         IntName         .... 3_3_3_trifluoropropanoic_acid_defluorinated
 Hartree-Fock type      HFTyp           .... RHF
 Total Charge           Charge          ....    1
 Multiplicity           Mult            ....    1
 Number of Electrons    NEL             ....   54
 Basis Dimension        Dim             ....  259
 Nuclear Repulsion      ENuc            ....    303.9509449460 Eh

Convergence Acceleration:
 AO-DIIS                CNVDIIS         .... on
   Start iteration      DIISMaxIt       ....    12
   Startup error        DIISStart       ....  0.200000
   # of expansion vecs  DIISMaxEq       ....     5
   Bias factor          DIISBfac        ....   1.050
   Max. coefficient     DIISMaxC        ....  10.000
 MO-DIIS                CNVKDIIS        .... off
 Trust-Rad. Augm. Hess. CNVTRAH         .... auto
   Auto Start mean grad. ratio tolernc. ....  1.125000
   Auto Start start iteration           ....    50
   Auto Start num. interpolation iter.  ....    10
   Max. Number of Micro iterations      ....    24
   Max. Number of Macro iterations      .... Maxiter - #DIIS iter
   Number of Davidson start vectors     ....     2
   Converg. threshold    (grad. norm)   ....   1.000e-05
   Grad. Scal. Fac. for Micro threshold ....   0.100
   Minimum threshold for Micro iter.    ....   1.000e-02
   NR start threshold (gradient norm)   ....   1.000e-04
   Initial trust radius                 ....   0.400
   Minimum AH scaling param. (alpha)    ....   1.000
   Maximum AH scaling param. (alpha)    .... 1000.000
   Quad. conv. algorithm                .... NR
   White noise on init. David. guess    .... on
   Maximum white noise                  ....   0.010
   Pseudo random numbers                .... off
   Inactive MOs                         .... canonical
   Orbital update algorithm             .... Taylor
   Preconditioner                       .... Diag
   Full preconditioner red. dimension   ....   250
 SOSCF                 CNVSOSCF           .... on
   Start iteration     SOSCFMaxIt         ....   150
   Startup grad/error  SOSCFStart         ....  0.003300
   Hessian update      SOSCFHessUp        .... L-BFGS
   Autom. constraints  SOSCFAutoConstrain .... off
 Level Shifting         CNVShift        .... on
   Level shift para.    LevelShift      ....    0.2500
   Turn off err/grad.   ShiftErr        ....    0.0010
 Zerner damping         CNVZerner       .... off
 Static damping         CNVDamp         .... on
   Fraction old density DampFac         ....    0.7000
   Max. Damping (<1)    DampMax         ....    0.9800
   Min. Damping (>=0)   DampMin         ....    0.0000
   Turn off err/grad.   DampErr         ....    0.1000

SCF Procedure:
 Maximum # iterations   MaxIter         ....   125
 SCF integral mode      SCFMode         .... Direct
   Integral package                     .... SHARK and LIBINT hybrid scheme
 Reset frequency        DirectResetFreq ....    20
 Integral Threshold     Thresh          ....  2.500e-11 Eh
 Primitive CutOff       TCut            ....  2.500e-12 Eh

Convergence Tolerance:
 Convergence Check Mode ConvCheckMode   .... Total+1el-Energy
 Convergence forced     ConvForced      .... 0
 Energy Change          TolE            ....  1.000e-08 Eh
 1-El. energy change                    ....  1.000e-05 Eh
 Orbital Gradient       TolG            ....  1.000e-05
 Orbital Rotation angle TolX            ....  1.000e-05
 DIIS Error             TolErr          ....  5.000e-07

------------------------------
INITIAL GUESS: MODEL POTENTIAL
------------------------------
Loading Hartree-Fock densities                     ... done
Calculating cut-offs                               ... done
Initializing the effective Hamiltonian             ... done
Setting up the integral package (SHARK)            ... done
Starting the Coulomb interaction                   ... done (   0.2 sec)
Making the grid                                    ... done (   0.1 sec)
Mapping shells                                     ... done
Starting the XC term evaluation                    ... done (   0.2 sec)
  promolecular density results
     # of electrons  =     54.997751203
     EX              =    -52.504135347
     EC              =     -1.871687431
     EX+EC           =    -54.375822779
Transforming the Hamiltonian                       ... done (   0.0 sec)
Diagonalizing the Hamiltonian                      ... done (   0.0 sec)
Back transforming the eigenvectors                 ... done (   0.0 sec)
Now organizing SCF variables                       ... done
                      ------------------
                      INITIAL GUESS DONE (   0.5 sec)
                      ------------------
             **** ENERGY FILE WAS UPDATED (3_3_3_trifluoropropanoic_acid_defluorinated.en.tmp) ****
Finished Guess after   0.5 sec
Maximum memory used throughout the entire GUESS-calculation: 21.2 MB

-------------------------------------------------------------------------------------------
                                      ORCA LEAN-SCF
                              memory conserving SCF solver
-------------------------------------------------------------------------------------------

--------------------
CPCM SOLVATION MODEL
--------------------
CPCM parameters:
  Epsilon                                         ...      78.3550
  Refrac                                          ...       1.3328
  Rsolv                                           ...       1.3000
  Surface type                                    ... GAUSSIAN VDW
  Discretization scheme                           ... Constant charge density
    Threshold for H atoms                         ...       5.0000 (charges/Ang^2)
    Threshold for non-H atoms                     ...       5.0000 (charges/Ang^2)
  Epsilon function type                           ...         CPCM
Solvent:                                          ... WATER
SMD-CDS solvent descriptors:
  Soln                                            ...       1.3328
  Soln25                                          ...       1.3323
  Sola                                            ...       0.0000
  Solb                                            ...       0.0000
  Solg                                            ...       0.0000
  Solc                                            ...       0.0000
  Solh                                            ...       0.0000
Radii:
  Scheme                                          ... Element-dependent radii
  Radius for C  used is    3.4960 Bohr (=   1.8500 Ang.)
  Radius for O  used is    2.8724 Bohr (=   1.5200 Ang.)
  Radius for H  used is    2.2677 Bohr (=   1.2000 Ang.)
  Radius for F  used is    3.2692 Bohr (=   1.7300 Ang.)
Calculating surface                               ...        done! (  0.0s)
Cavity surface points                             ...          879
Cavity Volume                                     ...     633.5719
Cavity Surface-area                               ...     430.5662
Calculating surface distance matrix               ...        done! (  0.0s)
Performing Cholesky decomposition & store         ...        done! (  0.0s)
Overall time for CPCM initialization              ...                 0.0s

----------------------------------------D-I-I-S--------------------------------------------
Iteration    Energy (Eh)           Delta-E    RMSDP     MaxDP     DIISErr   Damp  Time(sec)
-------------------------------------------------------------------------------------------
               ***  Starting incremental Fock matrix formation  ***
    1    -465.4491175821564184     0.00e+00  2.73e-03  1.41e-01  2.80e-01  0.700   1.4
Warning: op=0 Small HOMO/LUMO gap (  -0.176) - skipping pre-diagonalization
         LevelShift set to 0.276 Eh
         Will do a full diagonalization
    2    -465.5635091482218968    -1.14e-01  1.69e-03  5.77e-02  5.69e-02  0.700   1.4
                               ***Turning on AO-DIIS***
    3    -465.5588184953877544     4.69e-03  9.32e-04  3.44e-02  6.05e-02  0.700   1.4
    4    -465.5886247860654521    -2.98e-02  2.04e-03  7.44e-02  5.24e-02  0.000   1.4
    5    -465.6654089950202433    -7.68e-02  1.04e-03  3.79e-02  9.04e-02  0.000   1.4
    6    -465.6708452114311285    -5.44e-03  7.11e-04  2.17e-02  1.00e-01  0.000   1.4
    7    -465.6700353411013111     8.10e-04  1.57e-04  4.59e-03  1.05e-01  0.700   1.3
    8    -465.6691668106694806     8.69e-04  2.21e-04  6.61e-03  1.07e-01  0.700   1.3
    9    -465.6686914541243141     4.75e-04  4.11e-04  1.70e-02  1.07e-01  0.700   1.3
   10    -465.6781116726610890    -9.42e-03  3.66e-04  1.65e-02  5.47e-02  0.700   1.4
   11    -465.6847865955180623    -6.67e-03  9.11e-04  4.37e-02  3.33e-02  0.000   1.4
   12    -465.6933384828007547    -8.55e-03  1.40e-04  4.83e-03  1.17e-02  0.000   1.4
   13    -465.6939470845759388    -6.09e-04  7.01e-05  2.38e-03  7.67e-03  0.000   1.4
   14    -465.6940699586031087    -1.23e-04  4.87e-05  2.52e-03  4.09e-03  0.000   1.3
                              *** Initializing SOSCF ***
---------------------------------------S-O-S-C-F--------------------------------------
Iteration    Energy (Eh)           Delta-E    RMSDP     MaxDP     MaxGrad    Time(sec)
--------------------------------------------------------------------------------------
   15    -465.6941072568456548    -3.73e-05  2.92e-05  1.37e-03  1.09e-03     1.3
               *** Restarting incremental Fock matrix formation ***
   16    -465.6941176005938132    -1.03e-05  3.73e-05  2.00e-03  3.15e-04     1.5
   17    -465.6941224747442902    -4.87e-06  5.79e-05  1.73e-03  5.29e-04     1.2
   18    -465.6941282143720855    -5.74e-06  1.35e-05  3.70e-04  2.02e-04     1.2
   19    -465.6941281207930388     9.36e-08  1.10e-05  3.06e-04  2.38e-04     1.2
   20    -465.6941292306511286    -1.11e-06  1.89e-06  6.97e-05  1.80e-05     1.2
   21    -465.6941292160395278     1.46e-08  1.01e-06  4.11e-05  2.92e-05     1.1
   22    -465.6941292536640731    -3.76e-08  4.05e-07  1.38e-05  4.95e-06     1.1
   23    -465.6941292593854769    -5.72e-09  2.03e-07  5.88e-06  7.02e-06     1.1
                 **** Energy Check signals convergence ****

               *****************************************************
               *                     SUCCESS                       *
               *           SCF CONVERGED AFTER  23 CYCLES          *
               *****************************************************


SMD CDS free energy correction energy :                 5.79904     Kcal/mol
Total Energy after SMD CDS correction =              -465.684887899 Eh
             **** ENERGY FILE WAS UPDATED (3_3_3_trifluoropropanoic_acid_defluorinated.en.tmp) ****

----------------
TOTAL SCF ENERGY
----------------

Total Energy       :       -465.68488789892103 Eh          -12671.93003 eV

Components:
Nuclear Repulsion  :        303.95094494596003 Eh            8270.92570 eV
Electronic Energy  :       -769.50691727967148 Eh          -20939.34776 eV
One Electron Energy:      -1231.35727482030734 Eh          -33506.93491 eV
Two Electron Energy:        461.85035754063586 Eh           12567.58715 eV
CPCM Dielectric    :         -0.13815692546726 Eh              -3.75944 eV
SMD CDS (Gcds)     :          0.00924136025763 Eh               0.25147 eV

Virial components:
Potential Energy   :       -929.41980682263784 Eh          -25290.79870 eV
Kinetic Energy     :        463.73491892371686 Eh           12618.86867 eV
Virial Ratio       :          2.00420492159557

DFT components:
N(Alpha)           :       27.000006906602 electrons
N(Beta)            :       27.000006906602 electrons
N(Total)           :       54.000013813204 electrons
E(X)               :      -52.722018973537 Eh       
E(C)               :       -1.835315770894 Eh       
E(XC)              :      -54.557334744431 Eh       

CPCM Solvation Model Properties:
Surface-charge          :         -1.02183953709282
Corrected charge        :         -1.00000000000000
Outlying charge corr.   :          0.00004163298484 Eh               0.00113 eV
Free-energy (cav+disp)  :          0.00924136025763 Eh               0.25147 eV

---------------
SCF CONVERGENCE
---------------

  Last Energy change         ...    5.7214e-09  Tolerance :   1.0000e-08
  Last MAX-Density change    ...    5.8782e-06  Tolerance :   1.0000e-07
  Last RMS-Density change    ...    2.0286e-07  Tolerance :   5.0000e-09
  Last DIIS Error            ...    1.0874e-03  Tolerance :   5.0000e-07
  Last Orbital Gradient      ...    7.0228e-06  Tolerance :   1.0000e-05
  Last Orbital Rotation      ...    9.2415e-06  Tolerance :   1.0000e-05


----------------
ORBITAL ENERGIES
----------------

  NO   OCC          E(Eh)            E(eV) 
   0   2.0000     -24.403099      -664.0421 
   1   2.0000     -24.399518      -663.9447 
   2   2.0000     -18.834312      -512.5077 
   3   2.0000     -18.789644      -511.2922 
   4   2.0000     -10.215999      -277.9915 
   5   2.0000     -10.056205      -273.6432 
   6   2.0000      -9.982809      -271.6460 
   7   2.0000      -1.276701       -34.7408 
   8   2.0000      -1.215185       -33.0669 
   9   2.0000      -1.064487       -28.9662 
  10   2.0000      -0.980976       -26.6937 
  11   2.0000      -0.788523       -21.4568 
  12   2.0000      -0.685142       -18.6437 
  13   2.0000      -0.608420       -16.5559 
  14   2.0000      -0.601670       -16.3723 
  15   2.0000      -0.567515       -15.4429 
  16   2.0000      -0.551851       -15.0166 
  17   2.0000      -0.499101       -13.5812 
  18   2.0000      -0.479412       -13.0455 
  19   2.0000      -0.467373       -12.7179 
  20   2.0000      -0.455783       -12.4025 
  21   2.0000      -0.445997       -12.1362 
  22   2.0000      -0.433547       -11.7974 
  23   2.0000      -0.394227       -10.7275 
  24   2.0000      -0.375905       -10.2289 
  25   2.0000      -0.320015        -8.7081 
  26   2.0000      -0.286024        -7.7831 
  27   0.0000      -0.279720        -7.6116 
  28   0.0000      -0.071976        -1.9586 
  29   0.0000      -0.005381        -0.1464 
  30   0.0000       0.009555         0.2600 
  31   0.0000       0.020396         0.5550 
  32   0.0000       0.050487         1.3738 
  33   0.0000       0.086978         2.3668 
  34   0.0000       0.101094         2.7509 
  35   0.0000       0.120136         3.2691 
  36   0.0000       0.143574         3.9068 
  37   0.0000       0.145100         3.9484 
*Only the first 10 virtual orbitals were printed.

                    ********************************
                    * MULLIKEN POPULATION ANALYSIS *
                    ********************************

-----------------------
MULLIKEN ATOMIC CHARGES
-----------------------
   0 C :    0.481863
   1 C :   -0.093939
   2 O :   -0.178239
   3 H :    0.221537
   4 O :   -0.290770
   5 C :    0.285234
   6 H :    0.295588
   7 H :    0.202974
   8 F :    0.041052
   9 F :    0.034699
Sum of atomic charges:    1.0000000

--------------------------------
MULLIKEN REDUCED ORBITAL CHARGES
--------------------------------
  0 C s       :     3.262680  s :     3.262680
      pz      :     0.598392  p :     2.004764
      px      :     0.808175
      py      :     0.598196
      dz2     :     0.050410  d :     0.224629
      dxz     :     0.055296
      dyz     :     0.043647
      dx2y2   :     0.044252
      dxy     :     0.031023
      f0      :     0.004496  f :     0.026065
      f+1     :     0.005033
      f-1     :     0.003368
      f+2     :     0.004019
      f-2     :     0.003655
      f+3     :     0.003315
      f-3     :     0.002179

  1 C s       :     3.125734  s :     3.125734
      pz      :     1.107136  p :     2.882991
      px      :     0.829795
      py      :     0.946059
      dz2     :     0.010266  d :     0.080180
      dxz     :     0.013772
      dyz     :     0.023120
      dx2y2   :     0.012629
      dxy     :     0.020392
      f0      :     0.000559  f :     0.005034
      f+1     :     0.000502
      f-1     :     0.000565
      f+2     :     0.000427
      f-2     :     0.000796
      f+3     :     0.001178
      f-3     :     0.001007

  2 O s       :     3.739876  s :     3.739876
      pz      :     1.649658  p :     4.408375
      px      :     1.511780
      py      :     1.246937
      dz2     :     0.004511  d :     0.028661
      dxz     :     0.006277
      dyz     :     0.002295
      dx2y2   :     0.007000
      dxy     :     0.008578
      f0      :     0.000201  f :     0.001327
      f+1     :     0.000224
      f-1     :     0.000209
      f+2     :     0.000096
      f-2     :     0.000223
      f+3     :     0.000191
      f-3     :     0.000183

  3 H s       :     0.739734  s :     0.739734
      pz      :     0.015358  p :     0.036980
      px      :     0.007903
      py      :     0.013718
      dz2     :     0.000753  d :     0.001748
      dxz     :     0.000294
      dyz     :     0.000088
      dx2y2   :     0.000239
      dxy     :     0.000375

  4 O s       :     3.812383  s :     3.812383
      pz      :     1.466089  p :     4.447382
      px      :     1.641044
      py      :     1.340250
      dz2     :     0.002844  d :     0.029264
      dxz     :     0.000512
      dyz     :     0.009968
      dx2y2   :     0.007846
      dxy     :     0.008095
      f0      :     0.000197  f :     0.001741
      f+1     :     0.000028
      f-1     :     0.000222
      f+2     :     0.000374
      f-2     :     0.000063
      f+3     :     0.000487
      f-3     :     0.000371

  5 C s       :     3.085296  s :     3.085296
      pz      :     0.769923  p :     2.357331
      px      :     0.841721
      py      :     0.745687
      dz2     :     0.022409  d :     0.247525
      dxz     :     0.023605
      dyz     :     0.062825
      dx2y2   :     0.057091
      dxy     :     0.081595
      f0      :     0.002134  f :     0.024614
      f+1     :     0.002030
      f-1     :     0.002389
      f+2     :     0.003494
      f-2     :     0.002448
      f+3     :     0.007603
      f-3     :     0.004516

  6 H s       :     0.624894  s :     0.624894
      pz      :     0.024007  p :     0.071169
      px      :     0.019587
      py      :     0.027575
      dz2     :     0.000862  d :     0.008349
      dxz     :     0.000265
      dyz     :     0.002567
      dx2y2   :     0.002126
      dxy     :     0.002528

  7 H s       :     0.758566  s :     0.758566
      pz      :     0.017505  p :     0.036742
      px      :     0.008433
      py      :     0.010804
      dz2     :     0.000516  d :     0.001717
      dxz     :     0.000534
      dyz     :     0.000240
      dx2y2   :     0.000199
      dxy     :     0.000227

  8 F s       :     3.913939  s :     3.913939
      pz      :     1.751343  p :     5.027148
      px      :     1.654700
      py      :     1.621105
      dz2     :     0.002554  d :     0.017134
      dxz     :     0.004227
      dyz     :     0.002583
      dx2y2   :     0.003095
      dxy     :     0.004675
      f0      :     0.000077  f :     0.000725
      f+1     :     0.000103
      f-1     :     0.000050
      f+2     :     0.000089
      f-2     :     0.000185
      f+3     :     0.000106
      f-3     :     0.000115

  9 F s       :     3.913869  s :     3.913869
      pz      :     1.469699  p :     5.033494
      px      :     1.822020
      py      :     1.741775
      dz2     :     0.006302  d :     0.017208
      dxz     :     0.004851
      dyz     :     0.003975
      dx2y2   :     0.000890
      dxy     :     0.001190
      f0      :     0.000191  f :     0.000730
      f+1     :     0.000221
      f-1     :     0.000140
      f+2     :     0.000070
      f-2     :     0.000091
      f+3     :     0.000008
      f-3     :     0.000009



                     *******************************
                     * LOEWDIN POPULATION ANALYSIS *
                     *******************************

----------------------
LOEWDIN ATOMIC CHARGES
----------------------
   0 C :   -0.054557
   1 C :    0.041695
   2 O :    0.452017
   3 H :    0.096983
   4 O :    0.146942
   5 C :   -0.440508
   6 H :   -0.029603
   7 H :    0.088048
   8 F :    0.352494
   9 F :    0.346490

-------------------------------
LOEWDIN REDUCED ORBITAL CHARGES
-------------------------------
  0 C s       :     2.888205  s :     2.888205
      pz      :     0.712866  p :     2.274880
      px      :     0.903484
      py      :     0.658530
      dz2     :     0.172813  d :     0.727786
      dxz     :     0.187623
      dyz     :     0.128376
      dx2y2   :     0.108266
      dxy     :     0.130709
      f0      :     0.030810  f :     0.163686
      f+1     :     0.033153
      f-1     :     0.018883
      f+2     :     0.019907
      f-2     :     0.026222
      f+3     :     0.018922
      f-3     :     0.015788

  1 C s       :     2.718305  s :     2.718305
      pz      :     1.017733  p :     2.870490
      px      :     0.892091
      py      :     0.960666
      dz2     :     0.050209  d :     0.332037
      dxz     :     0.051654
      dyz     :     0.064656
      dx2y2   :     0.055802
      dxy     :     0.109717
      f0      :     0.004165  f :     0.037472
      f+1     :     0.004977
      f-1     :     0.004357
      f+2     :     0.004552
      f-2     :     0.004674
      f+3     :     0.007283
      f-3     :     0.007463

  2 O s       :     3.210797  s :     3.210797
      pz      :     1.498054  p :     4.254110
      px      :     1.482335
      py      :     1.273722
      dz2     :     0.009665  d :     0.077082
      dxz     :     0.009996
      dyz     :     0.007945
      dx2y2   :     0.023589
      dxy     :     0.025888
      f0      :     0.000375  f :     0.005994
      f+1     :     0.000390
      f-1     :     0.000611
      f+2     :     0.000538
      f-2     :     0.001032
      f+3     :     0.001511
      f-3     :     0.001537

  3 H s       :     0.720810  s :     0.720810
      pz      :     0.059634  p :     0.151445
      px      :     0.031575
      py      :     0.060236
      dz2     :     0.008534  d :     0.030762
      dxz     :     0.003967
      dyz     :     0.008640
      dx2y2   :     0.004825
      dxy     :     0.004796

  4 O s       :     3.409074  s :     3.409074
      pz      :     1.375707  p :     4.372402
      px      :     1.511738
      py      :     1.484957
      dz2     :     0.008006  d :     0.065447
      dxz     :     0.000616
      dyz     :     0.015209
      dx2y2   :     0.022983
      dxy     :     0.018633
      f0      :     0.000524  f :     0.006135
      f+1     :     0.000104
      f-1     :     0.000994
      f+2     :     0.000955
      f-2     :     0.000137
      f+3     :     0.001740
      f-3     :     0.001681

  5 C s       :     2.749902  s :     2.749902
      pz      :     0.760534  p :     2.623287
      px      :     0.911675
      py      :     0.951077
      dz2     :     0.090710  d :     0.913413
      dxz     :     0.087414
      dyz     :     0.194274
      dx2y2   :     0.241871
      dxy     :     0.299143
      f0      :     0.010205  f :     0.153906
      f+1     :     0.010088
      f-1     :     0.014237
      f+2     :     0.023504
      f-2     :     0.017357
      f+3     :     0.048544
      f-3     :     0.029971

  6 H s       :     0.627785  s :     0.627785
      pz      :     0.081369  p :     0.308584
      px      :     0.087205
      py      :     0.140010
      dz2     :     0.008266  d :     0.093234
      dxz     :     0.003065
      dyz     :     0.027995
      dx2y2   :     0.024121
      dxy     :     0.029788

  7 H s       :     0.733062  s :     0.733062
      pz      :     0.068131  p :     0.148519
      px      :     0.033598
      py      :     0.046790
      dz2     :     0.009129  d :     0.030372
      dxz     :     0.006710
      dyz     :     0.009230
      dx2y2   :     0.002575
      dxy     :     0.002728

  8 F s       :     3.618311  s :     3.618311
      pz      :     1.718864  p :     4.996863
      px      :     1.669773
      py      :     1.608226
      dz2     :     0.003990  d :     0.030846
      dxz     :     0.007699
      dyz     :     0.005009
      dx2y2   :     0.005184
      dxy     :     0.008964
      f0      :     0.000172  f :     0.001485
      f+1     :     0.000181
      f-1     :     0.000106
      f+2     :     0.000183
      f-2     :     0.000405
      f+3     :     0.000179
      f-3     :     0.000258

  9 F s       :     3.616921  s :     3.616921
      pz      :     1.542332  p :     5.003920
      px      :     1.773305
      py      :     1.688284
      dz2     :     0.011799  d :     0.031168
      dxz     :     0.010193
      dyz     :     0.005979
      dx2y2   :     0.001357
      dxy     :     0.001841
      f0      :     0.000390  f :     0.001501
      f+1     :     0.000474
      f-1     :     0.000273
      f+2     :     0.000154
      f-2     :     0.000173
      f+3     :     0.000011
      f-3     :     0.000026



                      *****************************
                      * MAYER POPULATION ANALYSIS *
                      *****************************

  NA   - Mulliken gross atomic population
  ZA   - Total nuclear charge
  QA   - Mulliken gross atomic charge
  VA   - Mayer's total valence
  BVA  - Mayer's bonded valence
  FA   - Mayer's free valence

  ATOM       NA         ZA         QA         VA         BVA        FA
  0 C      5.5181     6.0000     0.4819     3.9623     3.9623     0.0000
  1 C      6.0939     6.0000    -0.0939     3.7108     3.7108    -0.0000
  2 O      8.1782     8.0000    -0.1782     2.3427     2.3427     0.0000
  3 H      0.7785     1.0000     0.2215     0.9850     0.9850    -0.0000
  4 O      8.2908     8.0000    -0.2908     2.2606     2.2606    -0.0000
  5 C      5.7148     6.0000     0.2852     4.3813     4.3813    -0.0000
  6 H      0.7044     1.0000     0.2956     0.9592     0.9592    -0.0000
  7 H      0.7970     1.0000     0.2030     0.9878     0.9878    -0.0000
  8 F      8.9589     9.0000     0.0411     1.4542     1.4542    -0.0000
  9 F      8.9653     9.0000     0.0347     1.4393     1.4393     0.0000

  Mayer bond orders larger than 0.100000
B(  0-C ,  1-C ) :   0.9682 B(  0-C ,  4-O ) :   0.2088 B(  0-C ,  8-F ) :   1.3311 
B(  0-C ,  9-F ) :   1.3233 B(  1-C ,  3-H ) :   0.8775 B(  1-C ,  5-C ) :   0.9689 
B(  1-C ,  7-H ) :   0.9006 B(  2-O ,  5-C ) :   1.3295 B(  2-O ,  6-H ) :   0.9110 
B(  4-O ,  5-C ) :   1.9495 

-------
TIMINGS
-------

Total SCF time: 0 days 0 hours 0 min 31 sec 

Total time                  ....      31.514 sec
Sum of individual times     ....      30.377 sec  ( 96.4%)

SCF preparation             ....       0.080 sec  (  0.3%)
Fock matrix formation       ....      29.671 sec  ( 94.2%)
  Startup                   ....       0.005 sec  (  0.0% of F)
  Split-RI-J                ....       7.237 sec  ( 24.4% of F)
  XC integration            ....      15.201 sec  ( 51.2% of F)
    XC Preparation          ....       0.000 sec  (  0.0% of XC)
    Basis function eval.    ....       4.211 sec  ( 27.7% of XC)
    Density eval.           ....       4.416 sec  ( 29.0% of XC)
    XC-Functional eval.     ....       0.534 sec  (  3.5% of XC)
    XC-Potential eval.      ....       5.605 sec  ( 36.9% of XC)
  CPCM terms                ....       8.230 sec  ( 27.7% of F)
Diagonalization             ....       0.000 sec  (  0.0%)
Density matrix formation    ....       0.046 sec  (  0.1%)
Total Energy calculation    ....       0.011 sec  (  0.0%)
Population analysis         ....       0.097 sec  (  0.3%)
Orbital Transformation      ....       0.039 sec  (  0.1%)
Orbital Orthonormalization  ....       0.000 sec  (  0.0%)
DIIS solution               ....       0.325 sec  (  1.0%)
SOSCF solution              ....       0.108 sec  (  0.3%)
Finished LeanSCF after  31.8 sec

Maximum memory used throughout the entire LEANSCF-calculation: 24.9 MB

------------------------------------------------------------------------------
                         ORCA PROPERTY INTEGRAL CALCULATIONS
------------------------------------------------------------------------------

GBWName                                   ... 3_3_3_trifluoropropanoic_acid_defluorinated.gbw
Number of atoms                           ...     10
Number of basis functions                 ...    259
Max core memory                           ...  28672 MB

Dipole integrals                          ... YES
Quadrupole integrals                      ...  NO
Linear momentum integrals                 ...  NO
Angular momentum integrals                ...  NO
Higher moments length integrals           ...  NO
Higher moments velocity integrals         ...  NO
Kinetic energy integrals                  ...  NO
GIAO right hand sides                     ...  NO
GIAO dipole derivative integrals          ...  NO
SOC integrals                             ...  NO
EPR diamagnetic integrals (GIAO)          ...  NO
EPR gauge integrals                       ...  NO
Field gradient integrals                  ...  NO (   0 nuclei)
Spin-dipole/Fermi contact integrals       ...  NO (   0 nuclei)
Contact density integrals                 ...  NO (   0 nuclei)
Nucleus-orbit integrals                   ...  NO (   0 nuclei)
Geometric perturbations                   ...  NO (  10 nuclei)

Choice of electric origin   ... Center of mass
Position of electric origin ... (-10.0994,  1.5797, -0.2764) 
Choice of magnetic origin   ... GIAO
Position of magnetic origin ... (  0.0000,  0.0000,  0.0000) 

Calculating integrals                     ... Electric Dipole (Length)     done (  0.0 sec)

Property integrals calculated in   0.0 sec

Maximum memory used throughout the entire PROPINT-calculation: 21.7 MB


-------------------------------------------------------------------------------
                          DFT DISPERSION CORRECTION                            
                                                                               
                                DFTD4 V3.4.0                                   
-------------------------------------------------------------------------------
The PBE functional is recognized
Active option DFTDOPT                   ...         5   

-------------------------   ----------------
Dispersion correction           -0.006052944
-------------------------   ----------------


-------------------------   --------------------
FINAL SINGLE POINT ENERGY      -465.690940843353
-------------------------   --------------------

------------------------------------------------------------------------------
                         ORCA SCF GRADIENT CALCULATION
------------------------------------------------------------------------------

Nuc. rep. gradient        (SHARK) ... done (  0.0 sec)
HCore & Overlap gradient  (SHARK) ... done (  0.2 sec)
Split-RIJ-J gradient      (SHARK) ... done (  1.6 sec)
XC gradient                       ... done (  5.0 sec)
CPCM gradient                     ... done (  1.0 sec)
SMD gradient                      ... done (  0.0 sec)
Dispersion correction             ... done (  0.0 sec)

-------------------
DISPERSION GRADIENT
-------------------

   1   C   :   -0.000198805   -0.000030023    0.000047837
   2   C   :   -0.000011875    0.000049169    0.000018790
   3   O   :    0.000167240    0.000063122   -0.000052559
   4   H   :   -0.000028654    0.000055334   -0.000034979
   5   O   :    0.000172696   -0.000151276   -0.000004135
   6   C   :    0.000159795   -0.000016288   -0.000026844
   7   H   :    0.000052286    0.000016071   -0.000018945
   8   H   :   -0.000000520    0.000042411    0.000064133
   9   F   :   -0.000132759    0.000016747    0.000061733
  10   F   :   -0.000179405   -0.000045266   -0.000055031

Difference to translation invariance:
           :   -0.0000000000   -0.0000000000   -0.0000000000

Difference to rotation invariance:
           :   -0.0000000000   -0.0000000000    0.0000000000

Norm of the Dispersion gradient    ...    0.0004826347
RMS gradient                       ...    0.0000881166
MAX gradient                       ...    0.0001988048

------------------
CARTESIAN GRADIENT
------------------

   1   C   :    0.062109934   -0.101447079    0.081085279
   2   C   :   -0.027272275    0.032210803   -0.020470501
   3   O   :   -0.012416955   -0.008294960    0.009880870
   4   H   :    0.019523227   -0.003391692    0.003809013
   5   O   :    0.007445156    0.018055249    0.001626529
   6   C   :    0.013406940   -0.002979682   -0.023027136
   7   H   :   -0.006534689   -0.008655051    0.004514740
   8   H   :   -0.002176702   -0.000115129   -0.005331382
   9   F   :   -0.035075059    0.050624124    0.002300197
  10   F   :   -0.019009576    0.023993415   -0.054387610

Difference to translation invariance:
           :   -0.0000000000    0.0000000000   -0.0000000000

Difference to rotation invariance:
           :    0.0009463057    0.0001588314    0.0005745123

Norm of the Cartesian gradient     ...    0.1806090857
RMS gradient                       ...    0.0329745568
MAX gradient                       ...    0.1014470787

-------
TIMINGS
-------

Total SCF gradient time     ....        7.910 sec

Densities                   ....       0.001 sec  (  0.0%)
One electron gradient       ....       0.210 sec  (  2.7%)
RI-J Coulomb gradient       ....       1.641 sec  ( 20.8%)
XC gradient                 ....       5.028 sec  ( 63.6%)
CPCM gradient               ....       0.999 sec  ( 12.6%)
   A-Matrix (El+Nuc)        ....       0.023 sec  (  0.3%)
   Potential                ....       0.976 sec  ( 12.3%)
SMD gradient                ....       0.001 sec  (  0.0%)

Maximum memory used throughout the entire SCFGRAD-calculation: 40.2 MB
------------------------------------------------------------------------------
                         ORCA GEOMETRY RELAXATION STEP
------------------------------------------------------------------------------

Reading the OPT-File                    .... done
Getting information on internals        .... done
Copying old internal coords+grads       .... done
Making the new internal coordinates     .... (2022 redundants) done
Validating the new internal coordinates .... (2022 redundants) done
Calculating the B-matrix                .... done
Calculating the G,G- and P matrices     .... done
Transforming gradient to internals      .... done
Projecting the internal gradient        .... done
Number of atoms                         ....  10
Number of internal coordinates          ....  34
Current Energy                          ....  -465.690940843 Eh
Current gradient norm                   ....     0.180609086 Eh/bohr
Maximum allowed component of the step   ....  0.300
Current trust radius                    ....  0.300
Evaluating the initial hessian          ....  (Almloef) done
Projecting the Hessian                  .... done
Forming the augmented Hessian           .... done
Diagonalizing the augmented Hessian     .... done
Last element of RFO vector              ....  0.892554324
Lowest eigenvalues of augmented Hessian:
 -0.060414351  0.010063154  0.011370348  0.022736470  0.043087611
Length of the computed step             ....  0.505224020
Warning: the length of the step is outside the trust region - taking restricted step instead
The input lambda is                     ....     0.009000
   iter:   5  x=   -0.022061  g=   31.449088 f(x)=     0.628532
   iter:  10  x=   -0.204831  g=    0.479837 f(x)=     0.001189
The output lambda is                    ....    -0.204858 (13 iterations)
The final length of the internal step   ....  0.300000000
Converting the step to Cartesian space:
 Initial RMS(Int)=    0.0514495755
Transforming coordinates:
 Iter   0:  RMS(Cart)=    0.0934403717 RMS(Int)=    0.0516828026
 Iter   5:  RMS(Cart)=    0.0000018565 RMS(Int)=    0.0000014715
done
Storing new coordinates                 .... done

                                .--------------------.
          ----------------------|Geometry convergence|-------------------------
          Item                value                   Tolerance       Converged
          ---------------------------------------------------------------------
          RMS gradient        0.0239432920            0.0001000000      NO
          MAX gradient        0.0626380603            0.0003000000      NO
          RMS step            0.0514495755            0.0020000000      NO
          MAX step            0.1288588551            0.0040000000      NO
          -------------------------------------------------------------------------
          ........................................................
          Max(Bonds)      0.0333      Max(Angles)    7.38
          Max(Dihed)        6.79      Max(Improp)    0.00
          ---------------------------------------------------------------------

The optimization has not yet converged - more geometry cycles are needed


    ---------------------------------------------------------------------------
                         Redundant Internal Coordinates
                            (Angstroem and degrees)

        Definition                    Value    dE/dq     Step     New-Value
    ----------------------------------------------------------------------------
     1. B(C   1,C   0)                1.5418  0.013685 -0.0129    1.5289   
     2. B(H   3,C   1)                1.0930 -0.009329  0.0088    1.1018   
     3. B(C   5,C   1)                1.5177  0.004528 -0.0040    1.5137   
     4. B(C   5,O   4)                1.2146 -0.016537  0.0069    1.2215   
     5. B(C   5,O   2)                1.3093 -0.028677  0.0158    1.3251   
     6. B(H   6,O   2)                0.9724 -0.006134  0.0046    0.9770   
     7. B(H   7,C   1)                1.0931 -0.005039  0.0048    1.0979   
     8. B(F   8,C   0)                1.3453  0.051481 -0.0333    1.3120   
     9. B(F   9,C   0)                1.3456  0.048878 -0.0317    1.3139   
    10. A(C   1,C   0,F   8)          109.59 -0.051184    6.29    115.88   
    11. A(C   1,C   0,F   9)          110.19 -0.062638    7.38    117.57   
    12. A(F   8,C   0,F   9)          106.67  0.003191    2.32    108.99   
    13. A(H   3,C   1,C   5)          109.56 -0.017724    2.12    111.68   
    14. A(C   0,C   1,H   3)          109.30  0.006583   -1.13    108.17   
    15. A(C   0,C   1,H   7)          109.54 -0.008763    0.73    110.26   
    16. A(C   0,C   1,C   5)          112.43  0.020357   -2.18    110.24   
    17. A(H   3,C   1,H   7)          107.16 -0.008642    1.19    108.34   
    18. A(C   5,C   1,H   7)          108.72  0.006757   -0.56    108.16   
    19. A(C   5,O   2,H   6)          108.49 -0.018303    1.79    110.28   
    20. A(O   2,C   5,O   4)          121.82 -0.000165    0.05    121.87   
    21. A(C   1,C   5,O   4)          124.03  0.016253   -1.43    122.60   
    22. A(C   1,C   5,O   2)          113.59 -0.016788    1.60    115.19   
    23. D(H   7,C   1,C   0,F   8)     45.44  0.013145   -2.92     42.52   
    24. D(C   5,C   1,C   0,F   9)    -76.50 -0.034263    6.35    -70.15   
    25. D(H   3,C   1,C   0,F   8)    -71.68  0.024811   -4.12    -75.80   
    26. D(C   5,C   1,C   0,F   8)    166.43  0.029099   -4.56    161.86   
    27. D(H   3,C   1,C   0,F   9)     45.39 -0.038551    6.79     52.18   
    28. D(O   2,C   5,C   1,H   3)     46.51 -0.005342    0.47     46.98   
    29. D(O   4,C   5,O   2,H   6)   -176.40  0.002905   -0.98   -177.38   
    30. D(O   2,C   5,C   1,C   0)    168.25  0.004251   -0.94    167.31   
    31. D(C   1,C   5,O   2,H   6)     -4.65 -0.000922    0.52     -4.13   
    32. D(O   4,C   5,C   1,H   3)   -141.95 -0.010914    2.15   -139.80   
    33. D(O   4,C   5,C   1,C   0)    -20.20 -0.001320    0.74    -19.46   
    34. D(O   2,C   5,C   1,H   7)    -70.30  0.011088   -1.82    -72.12   
    ----------------------------------------------------------------------------

Geometry step timings:
Preparation and reading OPT file:      0.000 s ( 1.918 %)
Internal coordinates            :      0.000 s ( 2.685 %)
B/P matrices and projection     :      0.000 s (17.519 %)
Hessian update/contruction      :      0.000 s (14.450 %)
Making the step                 :      0.000 s (25.703 %)
Converting the step to Cartesian:      0.000 s ( 4.284 %)
Storing new data                :      0.000 s ( 3.964 %)
Checking convergence            :      0.000 s ( 3.772 %)
Final printing                  :      0.000 s (25.575 %)
Total time                      :      0.002 s

Time for energy+gradient        :     41.247 s
Time for complete geometry iter :     41.281 s

         *************************************************************
         *                GEOMETRY OPTIMIZATION CYCLE   2            *
         *************************************************************
---------------------------------
CARTESIAN COORDINATES (ANGSTROEM)
---------------------------------
  C     -6.421538    0.694197    0.231395
  C     -5.212329    1.614362    0.062288
  O     -2.972180    1.529428   -0.791290
  H     -5.468833    2.387965   -0.679197
  O     -3.923448   -0.396279   -0.204809
  C     -4.001066    0.812439   -0.363203
  H     -3.207296    2.477385   -0.817091
  H     -4.975417    2.109687    1.012985
  F     -7.406657    1.185710    0.945084
  F     -6.933265    0.172415   -0.860512

----------------------------
CARTESIAN COORDINATES (A.U.)
----------------------------
  NO LB      ZA    FRAG     MASS         X           Y           Z
   0 C     6.0000    0    12.011  -12.134948    1.311843    0.437272
   1 C     6.0000    0    12.011   -9.849875    3.050701    0.117707
   2 O     8.0000    0    15.999   -5.616607    2.890199   -1.495321
   3 H     1.0000    0     1.008  -10.334597    4.512600   -1.283497
   4 O     8.0000    0    15.999   -7.414241   -0.748858   -0.387033
   5 C     6.0000    0    12.011   -7.560919    1.535287   -0.686354
   6 H     1.0000    0     1.008   -6.060912    4.681580   -1.544077
   7 H     1.0000    0     1.008   -9.402175    3.986731    1.914263
   8 F     9.0000    0    18.998  -13.996554    2.240667    1.785950
   9 F     9.0000    0    18.998  -13.101973    0.325818   -1.626132

--------------------------------
INTERNAL COORDINATES (ANGSTROEM)
--------------------------------
 C      0   0   0     0.000000000000     0.00000000     0.00000000
 C      1   0   0     1.528883737419     0.00000000     0.00000000
 O      2   1   0     2.398765494087   139.17062960     0.00000000
 H      2   1   3     1.101842798767   108.23255151   112.68971574
 O      3   2   1     2.226480071198    62.47677666   338.09267066
 C      5   3   2     1.221520187811    30.36150720     4.33364958
 H      3   2   1     0.977020431889    75.54079436   157.63412547
 H      2   1   3     1.097861139114   110.26931086   231.15042599
 F      1   2   3     1.312020323798   115.37532927   171.18848980
 F      1   2   3     1.313918088809   117.07279032   299.92610027

---------------------------
INTERNAL COORDINATES (A.U.)
---------------------------
 C      0   0   0     0.000000000000     0.00000000     0.00000000
 C      1   0   0     2.889171554328     0.00000000     0.00000000
 O      2   1   0     4.533009843324   139.17062960     0.00000000
 H      2   1   3     2.082181132303   108.23255151   112.68971574
 O      3   2   1     4.207437577197    62.47677666   338.09267066
 C      5   3   2     2.308338622018    30.36150720     4.33364958
 H      3   2   1     1.846301043516    75.54079436   157.63412547
 H      2   1   3     2.074656886001   110.26931086   231.15042599
 F      1   2   3     2.479359094116   115.37532927   171.18848980
 F      1   2   3     2.482945350254   117.07279032   299.92610027

------------------------------------------------------------------------------
                   ___                                                        
                  /   \      - P O W E R E D   B Y -                         
                 /     \                                                     
                 |  |  |   _    _      __       _____    __    __             
                 |  |  |  | |  | |    /  \     |  _  \  |  |  /  |          
                  \  \/   | |  | |   /    \    | | | |  |  | /  /          
                 / \  \   | |__| |  /  /\  \   | |_| |  |  |/  /          
                |  |  |   |  __  | /  /__\  \  |    /   |      \           
                |  |  |   | |  | | |   __   |  |    \   |  |\   \          
                \     /   | |  | | |  |  |  |  | |\  \  |  | \   \       
                 \___/    |_|  |_| |__|  |__|  |_| \__\ |__|  \__/        
                                                                              
                      - O R C A' S   B I G   F R I E N D -                    
                                      &                                       
                       - I N T E G R A L  F E E D E R -                       
                                                                              
 v1 FN, 2020, v2 2021, v3 2022-2024                                           
------------------------------------------------------------------------------


----------------------
SHARK INTEGRAL PACKAGE
----------------------

Number of atoms                             ...     10
Number of basis functions                   ...    259
Number of shells                            ...     95
Maximum angular momentum                    ...      3
Integral batch strategy                     ... SHARK/LIBINT Hybrid
RI-J (if used) integral strategy            ... SPLIT-RIJ (Revised 2003 algorithm where possible)
Printlevel                                  ...      1
Contraction scheme used                     ... SEGMENTED contraction
Prescreening option                         ... SCHWARTZ
   Thresh                                   ... 2.500e-11
   Tcut                                     ... 2.500e-12
   Tpresel                                  ... 2.500e-12 
Coulomb Range Separation                    ... NOT USED
Exchange Range Separation                   ... NOT USED
Multipole approximations                    ... NOT USED
Finite Nucleus Model                        ... NOT USED
CABS basis                                  ... NOT available
Auxiliary Coulomb fitting basis             ... AVAILABLE
   # of basis functions in Aux-J            ...    376
   # of shells in Aux-J                     ...    120
   Maximum angular momentum in Aux-J        ...      4
Auxiliary J/K fitting basis                 ... NOT available
Auxiliary Correlation fitting basis         ... NOT available
Auxiliary 'external' fitting basis          ... NOT available

Checking pre-screening integrals            ... done (  0.0 sec) Dimension = 95
   => SHARK Basis and OBASIS are compatible. Storing Pre-screening
Shell pair information
Shell pair cut-off parameter TPreSel        ...   2.5e-12
Total number of shell pairs                 ...      4560
Shell pairs after pre-screening             ...      4128
Total number of primitive shell pairs       ...     13693
Primitive shell pairs kept                  ...      9418
          la=0 lb=0:    852 shell pairs
          la=1 lb=0:   1098 shell pairs
          la=1 lb=1:    368 shell pairs
          la=2 lb=0:    657 shell pairs
          la=2 lb=1:    433 shell pairs
          la=2 lb=2:    139 shell pairs
          la=3 lb=0:    269 shell pairs
          la=3 lb=1:    179 shell pairs
          la=3 lb=2:    108 shell pairs
          la=3 lb=3:     25 shell pairs

Checking whether 4 symmetric matrices of dimension 259 fit in memory
:Max Core in MB      =  28672.00
 MB in use           =      9.09
 MB left             =  28662.91
 MB needed           =      1.03
 Data fit in memory  = YES
Calculating RI/J V-Matrix + Cholesky decomp.... done (  0.0 sec)
Calculating Nuclear repulsion               ... done (  0.0 sec) ENN=    305.130070801015 Eh

Diagonalization of the overlap matrix:
Smallest eigenvalue                        ... 2.429e-04
Time for diagonalization                   ...    0.008 sec
Threshold for overlap eigenvalues          ... 1.000e-07
Number of eigenvalues below threshold      ... 0
Time for construction of square roots      ...    0.004 sec
Total time needed                          ...    0.012 sec

-------------------
DFT GRID GENERATION
-------------------

General Integration Accuracy     IntAcc      ... 4.388
Radial Grid Type                 RadialGrid  ... OptM3 with GC (2021)
Angular Grid (max. ang.)         AngularGrid ... 4 (Lebedev-302)
Angular grid pruning method      GridPruning ... 4 (adaptive)
Weight generation scheme         WeightScheme... mBecke (2022)
Basis function cutoff            BFCut       ... 1.0000e-11
Integration weight cutoff        WCut        ... 1.0000e-14
Partially contracted basis set               ... off
Rotationally invariant grid construction     ... off
Angular grids for H and He will be reduced by one unit

Total number of grid points                  ...    52325
Total number of batches                      ...      822
Average number of points per batch           ...       63
Average number of grid points per atom       ...     5232
Grids setup in   0.4 sec
[...]
     27       0.033951   0.085060  -0.010984  -0.029241   0.069385   0.008711
     28       0.060042  -0.104804   0.008792   0.100747  -0.012682   0.030960
     29      -0.131729  -0.237939  -0.064997   0.101972  -0.000855  -0.007060
                 18         19         20         21         22         23    
      0      -0.067656  -0.065421   0.005864   0.023628   0.007961   0.043922
      1       0.083148   0.039577  -0.063970   0.038785  -0.012680   0.035087
      2      -0.055675   0.006236   0.039653   0.004587  -0.050740  -0.089379
      3      -0.223338   0.105672  -0.086051  -0.067198   0.086769   0.026279
      4      -0.246107   0.050976   0.017390   0.007376  -0.009934   0.055204
      5       0.090206   0.022818   0.038562   0.017203  -0.021569  -0.021918
      6       0.080737   0.084844   0.125178  -0.094016  -0.031937   0.021859
      7       0.016341   0.055309   0.081017   0.021846   0.032529   0.002940
      8       0.020626   0.027178   0.062774   0.003036   0.013412   0.003318
      9      -0.606981  -0.816418   0.716809  -0.141124  -0.047510  -0.188858
     10      -0.063491  -0.049948  -0.146692  -0.145993   0.147962  -0.640204
     11       0.260345   0.259560  -0.254301   0.003742   0.055485  -0.158960
     12      -0.015740   0.002070   0.010410  -0.021843  -0.004324   0.005722
     13      -0.009488  -0.045772  -0.089183  -0.011481  -0.063377   0.004453
     14      -0.000850  -0.038659  -0.037984  -0.006910  -0.034811   0.004150
     15       0.000942  -0.125051  -0.239729   0.112267  -0.012911  -0.046427
     16      -0.005770  -0.038588   0.013755  -0.007928   0.005203  -0.004309
     17      -0.012934   0.046080  -0.071057   0.006943   0.006888  -0.012061
     18       0.028008   0.064415   0.438437   0.789484   0.567606  -0.066904
     19       0.013622   0.056145   0.119230   0.090911   0.082688  -0.004431
     20       0.023298   0.020143   0.091687   0.124511   0.100423  -0.004493
     21      -0.383728   0.278458   0.259998   0.514409  -0.769235  -0.026960
     22      -0.333870   0.223069  -0.011261  -0.128531   0.119922  -0.384108
     23       0.245946  -0.265384  -0.048371   0.005405   0.081266   0.596147
     24       0.078513   0.024023   0.004523   0.003476  -0.015664  -0.020181
     25      -0.054649  -0.003307  -0.000409  -0.001077   0.004243   0.003406
     26      -0.180982  -0.019748  -0.025863  -0.014611   0.042238   0.047515
     27       0.101206  -0.018478   0.008462  -0.011032   0.007693  -0.003075
     28       0.175913  -0.049742   0.030094  -0.022081   0.014143  -0.009409
     29       0.122574  -0.018845   0.011656  -0.007385   0.004559   0.001227
                 24         25         26         27         28         29    
      0      -0.284127  -0.283528  -0.070098  -0.000744   0.000751  -0.000355
      1      -0.524477  -0.050130  -0.076498  -0.001153  -0.000046  -0.000636
      2      -0.288322   0.398784   0.046221   0.002363  -0.001907   0.000382
      3       0.068508   0.135072   0.066793   0.016016  -0.021081   0.000745
      4       0.144750   0.130915   0.043406  -0.036287  -0.061887  -0.000571
      5       0.004478  -0.111668  -0.018119   0.060909  -0.062172  -0.000655
      6      -0.047798  -0.044591   0.001860  -0.000695  -0.000040   0.007186
      7      -0.008768  -0.005284   0.050593   0.000248   0.001141  -0.054921
      8      -0.011022  -0.006216   0.027817   0.000145   0.000656  -0.029430
      9      -0.180751   0.091422  -0.032133  -0.265741   0.061211  -0.000667
     10      -0.207989  -0.373807   0.040691   0.254921  -0.064767   0.000292
     11      -0.015461  -0.212787   0.028674  -0.895150   0.199157  -0.000957
     12      -0.011255  -0.008910   0.017620  -0.000437  -0.000128   0.000430
     13      -0.022417  -0.043644   0.383540   0.001055   0.000479   0.001604
     14      -0.016699  -0.022927   0.204296   0.000245   0.000336   0.000878
     15       0.100403   0.073777  -0.078342   0.002491  -0.001002   0.000128
     16       0.030866   0.051037  -0.603957  -0.001955  -0.000183  -0.002165
     17       0.039762   0.017819  -0.323318   0.000669  -0.000715  -0.001144
     18      -0.009671   0.060895   0.489093   0.001898   0.005588  -0.134725
     19      -0.011475   0.000028   0.067308  -0.003048  -0.009319   0.871540
     20      -0.010051   0.009232   0.064626  -0.002186  -0.006716   0.467046
     21       0.564239  -0.280697  -0.231154   0.048632   0.184417   0.005720
     22       0.136684  -0.246441   0.077517   0.187292   0.774366   0.010987
     23      -0.158653   0.568747   0.011440   0.142607   0.557163   0.005863
     24      -0.007875   0.079018   0.010445   0.000859  -0.000235   0.000081
     25       0.031537  -0.018969   0.002009  -0.000235   0.000197   0.000023
     26       0.065739  -0.172637  -0.022672  -0.000845   0.000251  -0.000189
     27       0.110613   0.020064   0.012789   0.000282   0.000534   0.000058
     28       0.219675   0.009740   0.025305   0.000744   0.000554   0.000168
     29       0.121692  -0.014984   0.008286   0.000137   0.000105   0.000090


-----------
IR SPECTRUM
-----------

 Mode   freq       eps      Int      T**2         TX        TY        TZ
       cm**-1   L/(mol*cm) km/mol    a.u.
----------------------------------------------------------------------------
  6:     65.84   0.001918    9.69  0.009091  (-0.016800 -0.040684  0.084578)
  7:     87.55   0.001001    5.06  0.003566  ( 0.010312  0.015899  0.056633)
  8:    156.83   0.002720   13.75  0.005413  (-0.046786 -0.041599  0.038648)
  9:    359.69   0.000152    0.77  0.000132  (-0.011311 -0.001869 -0.000897)
 10:    411.56   0.002913   14.72  0.002209  (-0.032813 -0.014526  0.030354)
 11:    495.70   0.030788  155.59  0.019382  (-0.017720  0.078162 -0.113837)
 12:    530.57   0.002150   10.87  0.001265  (-0.010331 -0.031531  0.012794)
 13:    598.02   0.000543    2.74  0.000283  (-0.014619 -0.003429 -0.007592)
 14:    617.00   0.020873  105.48  0.010557  (-0.078617 -0.013940  0.064670)
 15:    713.47   0.016755   84.68  0.007329  (-0.061322  0.038758  0.045454)
 16:    805.66   0.016311   82.43  0.006318  (-0.075767  0.019904  0.013465)
 17:    907.63   0.009571   48.37  0.003291  (-0.036933 -0.029125  0.032839)
 18:    936.57   0.006989   35.32  0.002329  (-0.044412 -0.018445  0.003991)
 19:   1056.17   0.093390  471.95  0.027594  (-0.160406  0.009873  0.042023)
 20:   1156.59   0.017052   86.18  0.004601  (-0.062759 -0.022626 -0.012258)
 21:   1196.51   0.179091  905.05  0.046709  ( 0.210443  0.045231  0.019417)
 22:   1233.10   0.006277   31.72  0.001588  ( 0.012630  0.037153  0.006976)
 23:   1353.75   0.016652   84.15  0.003839  ( 0.011041 -0.040092 -0.045927)
 24:   1435.81   0.062326  314.97  0.013546  (-0.071150 -0.085310 -0.034729)
 25:   1455.28   0.138664  700.75  0.029734  (-0.098320  0.000804  0.141658)
 26:   1766.82   0.116649  589.50  0.020603  (-0.005503 -0.127461 -0.065778)
 27:   2960.25   0.024769  125.17  0.002611  (-0.011568  0.032851 -0.037391)
 28:   3119.23   0.005276   26.66  0.000528  ( 0.006194  0.011620  0.018825)
 29:   3628.19   0.050468  255.04  0.004341  ( 0.017883  0.056377  0.029028)

* The epsilon (eps) is given for a Dirac delta lineshape.
** The dipole moment derivative (T) already includes vibrational overlap.

The first frequency considered to be a vibration is 6
The total number of vibrations considered is 24


--------------------------
THERMOCHEMISTRY AT 298.15K
--------------------------

Temperature         ...   298.15 K
Pressure            ...     1.00 atm
Total Mass          ...   109.05 AMU
Quasi RRHO          ...     True
Cut-Off Frequency   ...     1.00 cm^-1

Throughout the following assumptions are being made:
  (1) The electronic state is orbitally nondegenerate
  (2) There are no thermally accessible electronically excited states
  (3) Hindered rotations indicated by low frequency modes are not
      treated as such but are treated as vibrations and this may
      cause some error
  (4) All equations used are the standard statistical mechanics
      equations for an ideal gas
  (5) All vibrations are strictly harmonic

freq.      65.84  E(vib)   ...       0.50 
freq.      87.55  E(vib)   ...       0.48 
freq.     156.83  E(vib)   ...       0.40 
freq.     359.69  E(vib)   ...       0.22 
freq.     411.56  E(vib)   ...       0.19 
freq.     495.70  E(vib)   ...       0.14 
freq.     530.57  E(vib)   ...       0.13 
freq.     598.02  E(vib)   ...       0.10 
freq.     617.00  E(vib)   ...       0.09 
freq.     713.47  E(vib)   ...       0.07 
freq.     805.66  E(vib)   ...       0.05 
freq.     907.63  E(vib)   ...       0.03 
freq.     936.57  E(vib)   ...       0.03 
freq.    1056.17  E(vib)   ...       0.02 
freq.    1156.59  E(vib)   ...       0.01 
freq.    1196.51  E(vib)   ...       0.01 
freq.    1233.10  E(vib)   ...       0.01 
freq.    1353.75  E(vib)   ...       0.01 
freq.    1435.81  E(vib)   ...       0.00 
freq.    1455.28  E(vib)   ...       0.00 
freq.    1766.82  E(vib)   ...       0.00 
freq.    2960.25  E(vib)   ...       0.00 
freq.    3119.23  E(vib)   ...       0.00 
freq.    3628.19  E(vib)   ...       0.00 

------------
INNER ENERGY
------------

The inner energy is: U= E(el) + E(ZPE) + E(vib) + E(rot) + E(trans)
    E(el)   - is the total energy from the electronic structure calculation
              = E(kin-el) + E(nuc-el) + E(el-el) + E(nuc-nuc)
    E(ZPE)  - the the zero temperature vibrational energy from the frequency calculation
    E(vib)  - the the finite temperature correction to E(ZPE) due to population
              of excited vibrational states
    E(rot)  - is the rotational thermal energy
    E(trans)- is the translational thermal energy

Summary of contributions to the inner energy U:
Electronic energy                ...   -465.76827210 Eh
Zero point energy                ...      0.06161936 Eh      38.67 kcal/mol
Thermal vibrational correction   ...      0.00397098 Eh       2.49 kcal/mol
Thermal rotational correction    ...      0.00141627 Eh       0.89 kcal/mol
Thermal translational correction ...      0.00141627 Eh       0.89 kcal/mol
-----------------------------------------------------------------------
Total thermal energy                   -465.69984921 Eh


Summary of corrections to the electronic energy:
(perhaps to be used in another calculation)
Total thermal correction                  0.00680352 Eh       4.27 kcal/mol
Non-thermal (ZPE) correction              0.06161936 Eh      38.67 kcal/mol
-----------------------------------------------------------------------
Total correction                          0.06842288 Eh      42.94 kcal/mol


--------
ENTHALPY
--------

The enthalpy is H = U + kB*T
                kB is Boltzmann's constant
Total thermal energy              ...   -465.69984921 Eh 
Thermal Enthalpy correction       ...      0.00094421 Eh       0.59 kcal/mol
-----------------------------------------------------------------------
Total Enthalpy                    ...   -465.69890500 Eh


Note: Only C1 symmetry has been detected, increase convergence thresholds 
      if your molecule has a higher symmetry. Symmetry factor of 1.0 is   
      used for the rotational entropy correction. 
 

Note: Rotational entropy computed according to Herzberg 
Infrared and Raman Spectra, Chapter V,1, Van Nostrand Reinhold, 1945 
Point Group:  C1, Symmetry Number:   1  
Rotational constants in cm-1:     0.168548     0.058914     0.047715 

Vibrational entropy computed according to the QRRHO of S. Grimme
Chem.Eur.J. 2012 18 9955 using a reference frequency of 100.0 cm-1


-------
ENTROPY
-------

The entropy contributions are T*S = T*(S(el)+S(vib)+S(rot)+S(trans))
     S(el)   - electronic entropy
     S(vib)  - vibrational entropy
     S(rot)  - rotational entropy
     S(trans)- translational entropy
The entropies will be listed as multiplied by the temperature to get
units of energy

Electronic entropy                ...      0.00000000 Eh      0.00 kcal/mol
Vibrational entropy               ...      0.00685852 Eh      4.30 kcal/mol
Rotational entropy                ...      0.01312452 Eh      8.24 kcal/mol
Translational entropy             ...      0.01899396 Eh     11.92 kcal/mol
-----------------------------------------------------------------------
Final entropy term                ...      0.03897700 Eh     24.46 kcal/mol

In case the symmetry of your molecule has not been determined correctly
or in case you have a reason to use a different symmetry number we print 
out the resulting rotational entropy values for sn=1,12:

 non-linear molecules -----------------------------------
|  sn= 1 | S(rot)=       0.01312452 Eh      8.24 kcal/mol|
|  sn= 2 | S(rot)=       0.01247007 Eh      7.83 kcal/mol|
|  sn= 3 | S(rot)=       0.01208724 Eh      7.58 kcal/mol|
|  sn= 4 | S(rot)=       0.01181561 Eh      7.41 kcal/mol|
|  sn= 5 | S(rot)=       0.01160492 Eh      7.28 kcal/mol|
|  sn= 6 | S(rot)=       0.01143278 Eh      7.17 kcal/mol|
|  sn= 7 | S(rot)=       0.01128723 Eh      7.08 kcal/mol|
|  sn= 8 | S(rot)=       0.01116116 Eh      7.00 kcal/mol|
|  sn= 9 | S(rot)=       0.01104995 Eh      6.93 kcal/mol|
|  sn=10 | S(rot)=       0.01095047 Eh      6.87 kcal/mol|
|  sn=11 | S(rot)=       0.01086048 Eh      6.82 kcal/mol|
|  sn=12 | S(rot)=       0.01077832 Eh      6.76 kcal/mol|
 linear molecules ---------------------------------------
|  Dinfh | S(rot)=       0.00819848 Eh      5.14 kcal/mol|
|  Cinfv | S(rot)=       0.00885294 Eh      5.56 kcal/mol|
 --------------------------------------------------------


-------------------
GIBBS FREE ENERGY
-------------------

The Gibbs free energy is G = H - T*S

Total enthalpy                    ...   -465.69890500 Eh 
Total entropy correction          ...     -0.03897700 Eh    -24.46 kcal/mol
-----------------------------------------------------------------------
Final Gibbs free energy         ...   -465.73788201 Eh

For completeness - the Gibbs free energy minus the electronic energy
G-E(el)                           ...      0.03039009 Eh     19.07 kcal/mol


Maximum memory used throughout the entire PROP-calculation: 48.5 MB

--------------------------------
SUGGESTED CITATIONS FOR THIS RUN
--------------------------------

Below you find a list of papers that are relevant to this ORCA run
We neither can nor want to force you to cite these papers, but we appreciate if you do
You receive ORCA, which is the product of decades of hard work by many enthusiastic individuals, for free
The only thing we kindly ask in return is that you cite our papers,
We deeply appreciate it, if you show your appreciation for ORCA by not just citing the generic ORCA reference.

Please note that relegating all ORCA citations to the supporting information does *not* help us.
SI sections are not indexed - citations you put there will not count into any citation statistics
But we need these citations in order to attract the funding resources that allow us to do what we are doing

Therefore, if you are a happy ORCA user, please consider citing a few of the papers listed below in the main body of your paper

In addition to the list printed below, the program has created the file 3_3_3_trifluoropropanoic_acid_defluorinated.bibtex that contains the list in bibtex format
You can import this file easily into all common literature databanks and citation aid programs


List of essential papers. We consider these as the minimum necessary citations

  1. Neese, F.
     Software update: the ORCA program system, version 6.0
     WIRES Comput. Molec. Sci. 2025 15(1), e70019
     doi.org/10.1002/wcms.7019

List of papers to cite with high priority. The work reported in these papers was absolutely
necessary for this run to complete.
Our perspective: the developers of density functionals and basis sets usually get cited in chemistry papers
Good! But without the algorithms to do something with them, the functionals or basis sets would not do anything.
Hence, in our opinion, the algorithm design and method developments papers are equally worthy of getting cited

  1. Neese, F.
     An improvement of the resolution of the identity approximation for the formation of the Coulomb matrix
     J. Comp. Chem. 2003 24(14), 1740-1747
     doi.org/10.1002/jcc.10318
  2. Bykov, D.; Petrenko, T.; Izsak, R.; Kossmann, S.; Becker, U.; Valeev, E.; Neese, F.
     Efficient implementation of the analytic second derivatives of Hartree-Fock and hybrid DFT energies: a detailed analysis of different approximations
     Molec. Phys. 2015 113 , 1961-1977
     doi.org/10.1080/00268976.2015.1025114
  3. Caldeweyher, E.; Bannwarth, C.; Grimme, S.
     Extension of the D3 dispersion coefficient model
     J. Chem. Phys. 2017 147 , 034112
     doi.org/10.1063/1.4993215
  4. Caldeweyher, E.; Ehlert, S.; Hansen, A.; Neugebauer, H.; Spicher, S.; Bannwarth, C.; Grimme, S.
     A generally applicable atomic-charge dependent London dispersion correction
     J. Chem. Phys. 2019 150 , 154122
     doi.org/10.1063/1.5090222
  5. Garcia-Rates, M.; Neese, F.
     Efficient implementation of the analytical second derivatives of hartree-fock and hybrid DFT energies within the framework of the conductor-like polarizable continuum model
     J. Comput. Chem. 2019 40 , 1816-1828
     doi.org/10.1002/jcc.25833
  6. Caldeweyher, E.; Mewes, J.; Ehlert, S.; Grimme, S.
     Extension and evaluation of the D4 London-dispersion model for periodic systems
     Phys. Chem. Chem. Phys. 2020 22(16), 8499-8512
     doi.org/10.1039/D0CP00502A
  7. Garcia-Rates, M.; Neese, F.
     Effect of the Solute Cavity on the Solvation Energy and its Derivatives within the Framework of the Gaussian Charge Scheme
     J. Comput. Chem. 2020 41 , 922-939
     doi.org/10.1002/jcc.26139
  8. Neese, F.
     The SHARK Integral Generation and Digestion System
     J. Comp. Chem. 2022 44(3), 381
     doi.org/10.1002/jcc.26942
  9. Wittmann, L.; Gordiy, I.; Friede, M.; Helmich-Paris, B.; Grimme, S.; Hansen, A.; Bursch, M.
     Extension of the D3 and D4 London Dispersion Corrections to the full Actinides Series
     Phys. Chem. Chem. Phys. 2024 26(32), 21379-21394
     doi.org/10.1039/D4CP01514B

List of suggested additional citations. These are papers that are important in the 'surrounding' of 
of this run, or papers that preceded the highly important papers. If you like your results we are grateful for a citation.

  1. Neese, F.
     The ORCA program system
     WIRES Comput. Molec. Sci. 2012 2(1), 73-78
     doi.org/10.1002/wcms.81
  2. Neese, F.
     Software update: the ORCA program system, version 4.0
     WIRES Comput. Molec. Sci. 2018 8(1), 1-6
     doi.org/10.1002/wcms.1327
  3. Neese, F.; Wennmohs, F.; Becker, U.; Riplinger, C.
     The ORCA quantum chemistry program package
     J. Chem. Phys. 2020 152(22), 224108
     doi.org/10.1063/5.0004608
  4. Neese, F.
     Software update: The ORCA program system—Version 5.0
     WIRES Comput. Molec. Sci. 2022 12(1), e1606
     doi.org/10.1002/wcms.1606

List of optional additional citations

  1. Neese, F.
     Approximate second-order SCF convergence for spin unrestricted wavefunctions
     Chem. Phys. Lett. 2000 325(1-3), 93-98
     doi.org/10.1016/s0009-2614(00)00662-x

Timings for individual modules:

Sum of individual times          ...      904.595 sec (=  15.077 min)
Startup calculation              ...       16.915 sec (=   0.282 min)   1.9 %
SCF iterations                   ...      435.572 sec (=   7.260 min)  48.2 %
Property integrals               ...      106.442 sec (=   1.774 min)  11.8 %
SCF Response                     ...       63.128 sec (=   1.052 min)   7.0 %
Property calculations            ...       56.834 sec (=   0.947 min)   6.3 %
SCF Gradient evaluation          ...      225.585 sec (=   3.760 min)  24.9 %
Geometry relaxation              ...        0.120 sec (=   0.002 min)   0.0 %
                             ****ORCA TERMINATED NORMALLY****
TOTAL RUN TIME: 0 days 0 hours 15 minutes 7 seconds 520 msec
