
                                 *****************
                                 * O   R   C   A *
                                 *****************

                                            #,                                       
                                            ###                                      
                                            ####                                     
                                            #####                                    
                                            ######                                   
                                           ########,                                 
                                     ,,################,,,,,                         
                               ,,#################################,,                 
                          ,,##########################################,,             
                       ,#########################################, ''#####,          
                    ,#############################################,,   '####,        
                  ,##################################################,,,,####,       
                ,###########''''           ''''###############################       
              ,#####''   ,,,,##########,,,,          '''####'''          '####       
            ,##' ,,,,###########################,,,                        '##       
           ' ,,###''''                  '''############,,,                           
         ,,##''                                '''############,,,,        ,,,,,,###''
      ,#''                                            '''#######################'''  
     '                                                          ''''####''''         
             ,#######,   #######,   ,#######,      ##                                
            ,#'     '#,  ##    ##  ,#'     '#,    #''#        ,####,    ,#,          
            ##       ##  ##   ,#'  ##            #'  '#       #'       ,# #          
            ##       ##  #######   ##           ,######,      #####,      #          
            '#,     ,#'  ##    ##  '#,     ,#' ,#      #,     #,   #      #          
             '#######'   ##     ##  '#######'  #'      '#     '####' #    #          



                #########################################################
                #                        -***-                          #
                #          Department of theory and spectroscopy        #
                #                                                       #
                #                      Frank Neese                      #
                #                                                       #
                #     Directorship, Architecture, Infrastructure        #
                #                    SHARK, DRIVERS                     #
                #        Core code/Algorithms in most modules           #
                #                                                       #
                #        Max Planck Institute fuer Kohlenforschung      #
                #                Kaiser Wilhelm Platz 1                 #
                #                 D-45470 Muelheim/Ruhr                 #
                #                      Germany                          #
                #                                                       #
                #                  All rights reserved                  #
                #                        -***-                          #
                #########################################################


                         Program Version 6.1.0  -  RELEASE   -
                                (GIT: $679e74b$)
                          ($2025-06-10 18:02:51 +0200$)


 With contributions from (in alphabetic order):
[Max-Planck-Institut fuer Kohlenforschung]                               
  Daniel Aravena         : Magnetic Suceptibility                        
  Michael Atanasov       : Ab Initio Ligand Field Theory (pilot matlab implementation)
  Alexander A. Auer      : GIAO ZORA, VPT2 properties, NMR spectrum      
  Ute Becker             : All parallelization in ORCA, NUMFREQ, NUMCALC 
  Giovanni Bistoni       : ED, misc. LED, open-shell LED, HFLD           
  Dmytro Bykov           : pre 5.0 version of the SCF Hessian            
  Marcos Casanova-Páez   : Triplet and SCS-CIS(D). UHF-(DLPNO)-IP/EA/STEOM-CCSD. UHF-CVS-IP/STEOM-CCSD   
  Vijay G. Chilkuri      : MRCI spin determinant printing, contributions to CSF-ICE 
  Pauline Colinet        : FMM embedding                                 
  Dipayan Datta          : RHF DLPNO-CCSD density                        
  Achintya Kumar Dutta   : EOM-CC, STEOM-CC                              
  Nicolas Foglia         : Exact transition moments, OPA infrastructure, MCD improvements    
  Dmitry Ganyushin       : Spin-Orbit,Spin-Spin,Magnetic field MRCI      
  Miquel Garcia-Rates    : C-PCM and meta-GGA Hessian, CCSD/C-PCM, Gaussian charge scheme 
  Tiago L. C. Gouveia    : GS-ROHF, GS-ROCIS                             
  Yang Guo               : DLPNO-NEVPT2, F12-NEVPT2, CIM, IAO-localization        
  Andreas Hansen         : Spin unrestricted coupled pair/coupled cluster methods 
  Ingolf Harden          : AUTO-CI MPn and infrastructure                
  Benjamin Helmich-Paris : MC-RPA, TRAH-(SCF,CASSCF), AVAS, COSX integrals, SCF dyn. polar., MC-PDFT, srDFT 
  Lee Huntington         : MR-EOM, pCC                                   
  Robert Izsak           : Overlap fitted RIJCOSX, COSX-SCS-MP3, EOM     
  Riya Kayal             : Wick's Theorem for AUTO-CI, AUTO-CI UHF-CCSDT 
  Emily Kempfer          : AUTO-CI RHF CISDT and CCSDT, approximate NEVPT4
  Christian Kollmar      : KDIIS, OOCD, Brueckner-CCSD(T), CCSD density, CASPT2, CASPT2-K, improved NEVPT2 
  Axel Koslowski         : Symmetry handling                             
  Simone Kossmann        : meta-GGA functionals, TD-DFT gradient, OOMP2, (MP2 Hessian; deprecated post 5.0) 
  Lucas Lang             : DCDCAS, Hyperfine gauge corrections, ICE-SOC+SSC
  Marvin Lechner         : AUTO-CI (C++ implementation), FIC-MRCC        
  Spencer Leger          : CASSCF response                               
  Dagmar Lenk            : GEPOL surface, SMD, ORCA-2-JSON               
  Dimitrios Liakos       : Extrapolation schemes; Compound Job, Property file
  Dimitrios Manganas     : Further ROCIS development; embedding schemes. LFT, Crystal Embedding 
  Dimitrios Pantazis     : SARC Basis sets                               
  Anastasios Papadopoulos: AUTO-CI, single reference methods and gradients 
  Taras Petrenko         : pre 6.0 DFT Hessian and TD-DFT gradient,  ECA, NRVS 
  Petra Pikulova         : Analytic Raman intensities                    
  Peter Pinski           : DLPNO-MP2, DLPNO-MP2 Gradient                 
  Shashank Vittal Rao    : ES-AILFT, MagRelax                            
  Christoph Reimann      : Effective Core Potentials                     
  Marius Retegan         : Local ZFS, SOC                                
  Christoph Riplinger    : Optimizer, TS searches, QM/MM, DLPNO-CCSD(T), (RO)-DLPNO pert. Triples 
  Michael Roemelt        : Original ROCIS implementation, recursive CI coupling coefficients
  Masaaki Saitow         : Open-shell DLPNO-CCSD energy and density      
  Barbara Sandhoefer     : DKH picture change effects                    
  Yorick L. A. Schmerwitz: GMF and freeze-and-release deltaSCF, NEB S-IDPP initial path                    
  Kantharuban Sivalingam : CASSCF convergence/infrastructure, NEVPT2, NEVPT3, NEVPT4(SD), FIC-MRCI and CEPA variants
  Bernardo de Souza      : ESD, SOC TD-DFT                               
  Georgi L. Stoychev     : AutoAux, RI-MP2 NMR, DLPNO-MP2 response, X2C  
  Van Anh Tran           : RI-MP2 g-tensors                              
  Willem Van den Heuvel  : Paramagnetic NMR                              
  Zikuan Wang            : NOTCH, Electric field optimization            
  Frank Wennmohs         : Technical directorship and infrastructure     
  Hang Xu                : AUTO-CI-Response properties                   
                                                                         
[FACCTs GmbH]                                                            
  Markus Bursch, Nicolas Foglia, Miquel Garcia-Rates, Ingolf Harden, Hagen Neugebauer, Anastasios Papadopoulos, 
  Christoph Riplinger, Bernardo de Souza, Georgi L. Stoychev                                                    
                                                                 
  APM, various basis sets, CI-OPT, improved COSX, DLPNO-Multilevel,           
  DOCKER, DRACO, updates on ESD, Fragmentator, GOAT, IRC, LR-CPCM, L-BFGS, MBIS, meta-GGA TD-DFT gradient, ML-optimized integration grids, 
  MM, NACMEs, nearIR, NEB, NEB-TS, NL-DFT gradient (VV10), 2- and 3-layer-ONIOM, interface openCOSMO-RS, QMMM,   
  Crystal-QMMM, RESP, rigid body optimization, SF, symmetry and pop. for TD-DFT, various functionals, SOLVATOR                                   
                                                                         
[Other institutions]                                                     
  V. Asgeirsson          : NEB                                           
  Christoph Bannwarth    : sTDA-DFT, sTD-DFT, PBEh-3c, B97-3c, D3        
  Giovanni Bistoni       : ETS/NOCV, ADLD/ADEX, COVALED                  
  Martin Brehm           : Molecular dynamics                            
  Ronald Cardenas        : ETS/NOCV                                      
  Martina Colucci        : COVALED                                       
  Sebastian Ehlert       : rSCAN, r2SCAN, r2SCAN-3c, D4, dhf basis sets  
  Marvin Friede          : D4 for Fr, Ra, Ac-Lr                          
  Lars Goerigk           : TD-DFT with DH, B97 family of functionals     
  Stefan Grimme          : VdW corrections, initial TS optimization, DFT functionals, gCP, sTDA/sTD-DF 
  Waldemar Hujo          : DFT-NL                                        
  H. Jonsson             : NEB                                           
  Holger Kruse           : gCP                                           
  Marcel Mueller         : wB97X-3c, vDZP basis set                      
  Hagen Neugebauer       : wr2SCAN, Native XTB                           
  Gianluca Regni         : ADLD/ADEX                                     
  Tobias Risthaus        : pre 6.0 range-separated hybrid DFT and stability analysis
  Lukas Wittmann         : regularized MP2, r2SCAN double-hybrids, wr2SCAN        
                                                                         
We gratefully acknowledge several colleagues who have allowed us to      
interface, adapt or use parts of their codes:                            
  Ed Valeev, F. Pavosevic, A. Kumar             : LibInt (2-el integral package), F12 methods 
  Garnet Chan, S. Sharma, J. Yang, R. Olivares  : DMRG                   
  Ulf Ekstrom                                   : XCFun DFT Library      
  Mihaly Kallay                                 : mrcc  (arbitrary order and MRCC methods)
  Frank Weinhold                                : gennbo (NPA and NBO analysis)           
  Simon Mueller                                 : openCOSMO-RS                            
  Christopher J. Cramer and Donald G. Truhlar   : smd solvation model                     
  S Lehtola, MJT Oliveira, MAL Marques          : LibXC Library                           
  Liviu Ungur et al                             : ANISO software                          


 Your calculation uses the libint2 library for the computation of 2-el integrals
 For citations please refer to: http://libint.valeyev.net

 Your ORCA version has been built with support for libXC version: 7.0.0
 For citations please refer to: https://libxc.gitlab.io

 This ORCA versions uses:
   CBLAS   interface :  Fast vector & matrix operations
   LAPACKE interface :  Fast linear algebra routines
   SCALAPACK package :  Parallel linear algebra routines
   Shared memory     :  Shared parallel matrices
   BLAS/LAPACK       :  OpenBLAS 0.3.29  USE64BITINT DYNAMIC_ARCH NO_AFFINITY Zen SINGLE_THREADED
        Core in use  :  Zen
   Copyright (c) 2011-2014, The OpenBLAS Project


  ***********************************
  * Starting time: Wed Nov 26 23:08:30 2025
  * Host name:     twstudio
  * Process ID:    96953
  * Working dir.:  /mnt/sda3/data1/Studium-PC/PFAS-Breaker/C-F-Bonds_Gibbs/IonicFluorination
  ***********************************

Your calculation utilizes the atom-pairwise dispersion correction
based on EEQ partial charges (D4)


Your calculation utilizes the SMD solvation module
Please cite in your paper:
Marenich, A. V.; Cramer, C. J.; Truhlar, D. G. J. Phys. Chem. B 2009, 113, 6378 

Warning: RI is on but no J-basis has been assigned. Assigning Def2/J (nothing to worry about!)
================================================================================

----- Orbital basis set information -----
Your calculation utilizes the basis: def2-TZVPP
   F. Weigend and R. Ahlrichs, Phys. Chem. Chem. Phys. 7, 3297 (2005).

----- AuxJ basis set information -----
Your calculation utilizes the auxiliary basis: def2/J
   H-Rn: F. Weigend, Phys. Chem. Chem. Phys. 8, 1057 (2006).
   Fr-Lr: K. Eichkorn, F. Weigend, O. Treutler, R. Ahlrichs; Theor. Chem. Acc. 97, 119 (1997).

================================================================================
                                        WARNINGS
                       Please study these warnings very carefully!
================================================================================

WARNING: Old DensityContainer found on disk!
         Will remove this file - 
         If you want to keep old densities, please start your calculation with a different basename. 


WARNING: Geometry Optimization
  ===> : Switching off AutoStart
         For restart on a previous wavefunction, please use MOREAD

================================================================================
                                       INPUT FILE
================================================================================
NAME = 3_3_3_2_tetrafluoropropanoic_acid_defluorinated.inp
|  1> !PBE D4 def2-TZVPP OPT FREQ SMD(WATER)
|  2> 
|  3> %scf
|  4> MaxCore 28672
|  5> end
|  6> 
|  7> * xyz 1 1
|  8> C     -6.40842    0.62569    0.25356
|  9> C     -5.12847    1.49219    0.25857
| 10> O     -2.94724    1.72463   -0.62857
| 11> H     -5.34540    2.47542   -0.16640
| 12> F     -7.43113    1.31905    0.78544
| 13> C     -3.92403    0.87363   -0.43465
| 14> H     -3.23961    2.60473   -0.33661
| 15> F     -6.25733   -0.48937    0.99050
| 16> O     -3.77189   -0.31679   -0.61843
| 17> F     -6.76788    0.27283   -0.99418
| 18> **                         ****END OF INPUT****
================================================================================

                       *****************************
                       * Geometry Optimization Run *
                       *****************************

Geometry optimization settings:
Update method            Update   .... BFGS
Choice of coordinates    CoordSys .... (2022) Redundant Internals
Initial Hessian          InHess   .... Almloef's Model
Max. no of cycles        MaxIter  .... 50

Convergence Tolerances:
Energy Change            TolE     ....  5.0000e-06 Eh
Max. Gradient            TolMAXG  ....  3.0000e-04 Eh/bohr
RMS Gradient             TolRMSG  ....  1.0000e-04 Eh/bohr
Max. Displacement        TolMAXD  ....  4.0000e-03 bohr
RMS Displacement         TolRMSD  ....  2.0000e-03 bohr
Strict Convergence                .... False

------------------------------------------------------------------------------
                        ORCA OPTIMIZATION COORDINATE SETUP
------------------------------------------------------------------------------

The optimization will be done in redundant internal coordinates (2022)
Making redundant internal coordinates   ...  (2022 redundants) done
Evaluating the initial hessian          ...  (Almloef) done
Evaluating the coordinates              ...  done
Calculating the B-matrix                .... done
Calculating the G-matrix                .... done
The number of degrees of freedom        ....   33

    -----------------------------------------------------------------
                    Redundant Internal Coordinates


    -----------------------------------------------------------------
         Definition                    Initial Value    Approx d2E/dq
    -----------------------------------------------------------------
      1. B(C   1,C   0)                  1.5457         0.352667   
      2. B(H   3,C   1)                  1.0929         0.356303   
      3. B(F   4,C   0)                  1.3452         0.612960   
      4. B(C   5,O   2)                  1.3099         0.750961   
      5. B(C   5,C   1)                  1.5211         0.385944   
      6. B(H   6,O   2)                  0.9723         0.497051   
      7. B(F   7,C   0)                  1.3451         0.613222   
      8. B(O   8,C   5)                  1.2141         1.067884   
      9. B(F   9,C   0)                  1.3456         0.612127   
     10. A(C   1,C   0,F   4)          109.8361         0.387745   
     11. A(F   4,C   0,F   7)          107.2210         0.422932   
     12. A(F   4,C   0,F   9)          107.3800         0.422797   
     13. A(F   7,C   0,F   9)          108.7025         0.422829   
     14. A(C   1,C   0,F   9)          111.7915         0.387653   
     15. A(C   1,C   0,F   7)          111.7115         0.387774   
     16. A(C   0,C   1,C   5)          115.2292         0.361802   
     17. A(C   0,C   1,H   3)          109.7988         0.320715   
     18. A(H   3,C   1,C   5)          110.2307         0.325492   
     19. A(C   5,O   2,H   6)          108.6255         0.379599   
     20. A(O   2,C   5,O   8)          121.4083         0.489874   
     21. A(C   1,C   5,O   2)          113.1862         0.410037   
     22. A(C   1,C   5,O   8)          124.5359         0.436667   
     23. D(H   3,C   1,C   0,F   7)   -168.2565         0.010000   
     24. D(C   5,C   1,C   0,F   4)   -174.5773         0.010000   
     25. D(H   3,C   1,C   0,F   4)    -49.4140         0.010000   
     26. D(C   5,C   1,C   0,F   7)     66.5802         0.010000   
     27. D(H   3,C   1,C   0,F   9)     69.6776         0.010000   
     28. D(O   2,C   5,C   1,H   3)     43.0621         0.010287   
     29. D(O   2,C   5,C   1,C   0)    168.0012         0.010287   
     30. D(C   1,C   5,O   2,H   6)     -4.1550         0.042843   
     31. D(O   8,C   5,C   1,H   3)   -147.5264         0.010287   
     32. D(O   8,C   5,O   2,H   6)   -173.9390         0.042843   
     33. D(O   8,C   5,C   1,C   0)    -22.5874         0.010287   
    -----------------------------------------------------------------

Number of atoms                         .... 10
Number of degrees of freedom            .... 33


         *************************************************************
         *                GEOMETRY OPTIMIZATION CYCLE   1            *
         *************************************************************
---------------------------------
CARTESIAN COORDINATES (ANGSTROEM)
---------------------------------
  C     -6.408420    0.625690    0.253560
  C     -5.128470    1.492190    0.258570
  O     -2.947240    1.724630   -0.628570
  H     -5.345400    2.475420   -0.166400
  F     -7.431130    1.319050    0.785440
  C     -3.924030    0.873630   -0.434650
  H     -3.239610    2.604730   -0.336610
  F     -6.257330   -0.489370    0.990500
  O     -3.771890   -0.316790   -0.618430
  F     -6.767880    0.272830   -0.994180

----------------------------
CARTESIAN COORDINATES (A.U.)
----------------------------
  NO LB      ZA    FRAG     MASS         X           Y           Z
   0 C     6.0000    0    12.011  -12.110159    1.182383    0.479159
   1 C     6.0000    0    12.011   -9.691404    2.819830    0.488626
   2 O     8.0000    0    15.999   -5.569476    3.259078   -1.187825
   3 H     1.0000    0     1.008  -10.101342    4.677866   -0.314450
   4 F     9.0000    0    18.998  -14.042801    2.492643    1.484266
   5 C     6.0000    0    12.011   -7.415342    1.650921   -0.821369
   6 H     1.0000    0     1.008   -6.121976    4.922226   -0.636101
   7 F     9.0000    0    18.998  -11.824640   -0.924775    1.871774
   8 O     8.0000    0    15.999   -7.127839   -0.598646   -1.168663
   9 F     9.0000    0    18.998  -12.789440    0.515574   -1.878728

--------------------------------
INTERNAL COORDINATES (ANGSTROEM)
--------------------------------
 C      0   0   0     0.000000000000     0.00000000     0.00000000
 C      1   0   0     1.545677635408     0.00000000     0.00000000
 O      2   1   0     2.366180476232   144.80661280     0.00000000
 H      2   1   3     1.092885793988   109.79882498   114.58586773
 F      1   2   3     1.345206366362   109.83614053   196.00010430
 C      3   2   1     1.309933078634    36.22377826   340.95542587
 H      3   2   1     0.972263785451    72.49018193   156.82674014
 F      1   2   3     1.345090166234   111.71151589    77.15763017
 O      6   3   2     1.214092848344   121.40829310   190.21602136
 F      1   2   3     1.345576745786   111.79151504   315.09176371

---------------------------
INTERNAL COORDINATES (A.U.)
---------------------------
 C      0   0   0     0.000000000000     0.00000000     0.00000000
 C      1   0   0     2.920907422248     0.00000000     0.00000000
 O      2   1   0     4.471433083509   144.80661280     0.00000000
 H      2   1   3     2.065254846290   109.79882498   114.58586773
 F      1   2   3     2.542071626031   109.83614053   196.00010430
 C      3   2   1     2.475414772383    36.22377826   340.95542587
 H      3   2   1     1.837312284432    72.49018193   156.82674014
 F      1   2   3     2.541852039613   111.71151589    77.15763017
 O      6   3   2     2.294302984523   121.40829310   190.21602136
 F      1   2   3     2.542771541708   111.79151504   315.09176371

---------------------
BASIS SET INFORMATION
---------------------
There are 4 groups of distinct atoms

 Group   1 Type C   : 11s6p2d1f contracted to 5s3p2d1f pattern {62111/411/11/1}
 Group   2 Type O   : 11s6p2d1f contracted to 5s3p2d1f pattern {62111/411/11/1}
 Group   3 Type H   : 5s2p1d contracted to 3s2p1d pattern {311/11/1}
 Group   4 Type F   : 11s6p2d1f contracted to 5s3p2d1f pattern {62111/411/11/1}

Atom   0C    basis set group =>   1
Atom   1C    basis set group =>   1
Atom   2O    basis set group =>   2
Atom   3H    basis set group =>   3
Atom   4F    basis set group =>   4
Atom   5C    basis set group =>   1
Atom   6H    basis set group =>   3
Atom   7F    basis set group =>   4
Atom   8O    basis set group =>   2
Atom   9F    basis set group =>   4
---------------------------------
AUXILIARY/J BASIS SET INFORMATION
---------------------------------
There are 4 groups of distinct atoms

 Group   1 Type C   : 12s5p4d2f1g contracted to 6s4p3d1f1g pattern {711111/2111/211/2/1}
 Group   2 Type O   : 12s5p4d2f1g contracted to 6s4p3d1f1g pattern {711111/2111/211/2/1}
 Group   3 Type H   : 5s2p1d contracted to 3s1p1d pattern {311/2/1}
 Group   4 Type F   : 12s5p4d2f1g contracted to 6s4p3d1f1g pattern {711111/2111/211/2/1}

Atom   0C    basis set group =>   1
Atom   1C    basis set group =>   1
Atom   2O    basis set group =>   2
Atom   3H    basis set group =>   3
Atom   4F    basis set group =>   4
Atom   5C    basis set group =>   1
Atom   6H    basis set group =>   3
Atom   7F    basis set group =>   4
Atom   8O    basis set group =>   2
Atom   9F    basis set group =>   4
------------------------------------------------------------------------------
                             ORCA STARTUP CALCULATIONS
                           -- RI-GTO INTEGRALS CHOSEN --
------------------------------------------------------------------------------
------------------------------------------------------------------------------
                   ___                                                        
                  /   \      - P O W E R E D   B Y -                         
                 /     \                                                     
                 |  |  |   _    _      __       _____    __    __             
                 |  |  |  | |  | |    /  \     |  _  \  |  |  /  |          
                  \  \/   | |  | |   /    \    | | | |  |  | /  /          
                 / \  \   | |__| |  /  /\  \   | |_| |  |  |/  /          
                |  |  |   |  __  | /  /__\  \  |    /   |      \           
                |  |  |   | |  | | |   __   |  |    \   |  |\   \          
                \     /   | |  | | |  |  |  |  | |\  \  |  | \   \       
                 \___/    |_|  |_| |__|  |__|  |_| \__\ |__|  \__/        
                                                                              
                      - O R C A' S   B I G   F R I E N D -                    
                                      &                                       
                       - I N T E G R A L  F E E D E R -                       
                                                                              
 v1 FN, 2020, v2 2021, v3 2022-2024                                           
------------------------------------------------------------------------------


----------------------
SHARK INTEGRAL PACKAGE
----------------------

Number of atoms                             ...     10
Number of basis functions                   ...    276
Number of shells                            ...    100
Maximum angular momentum                    ...      3
Integral batch strategy                     ... SHARK/LIBINT Hybrid
RI-J (if used) integral strategy            ... SPLIT-RIJ (Revised 2003 algorithm where possible)
Printlevel                                  ...      1
Contraction scheme used                     ... SEGMENTED contraction
Prescreening option                         ... SCHWARTZ
   Thresh                                   ... 2.500e-11
   Tcut                                     ... 2.500e-12
   Tpresel                                  ... 2.500e-12 
Coulomb Range Separation                    ... NOT USED
Exchange Range Separation                   ... NOT USED
Multipole approximations                    ... NOT USED
Finite Nucleus Model                        ... NOT USED
CABS basis                                  ... NOT available
Auxiliary Coulomb fitting basis             ... AVAILABLE
   # of basis functions in Aux-J            ...    414
   # of shells in Aux-J                     ...    130
   Maximum angular momentum in Aux-J        ...      4
Auxiliary J/K fitting basis                 ... NOT available
Auxiliary Correlation fitting basis         ... NOT available
Auxiliary 'external' fitting basis          ... NOT available

Checking pre-screening integrals            ... done (  0.0 sec) Dimension = 100
   => SHARK Basis and OBASIS are compatible. Storing Pre-screening
Shell pair information
Shell pair cut-off parameter TPreSel        ...   2.5e-12
Total number of shell pairs                 ...      5050
Shell pairs after pre-screening             ...      4480
Total number of primitive shell pairs       ...     15758
Primitive shell pairs kept                  ...     10355
          la=0 lb=0:    901 shell pairs
          la=1 lb=0:   1177 shell pairs
          la=1 lb=1:    393 shell pairs
          la=2 lb=0:    706 shell pairs
          la=2 lb=1:    467 shell pairs
          la=2 lb=2:    151 shell pairs
          la=3 lb=0:    315 shell pairs
          la=3 lb=1:    211 shell pairs
          la=3 lb=2:    127 shell pairs
          la=3 lb=3:     32 shell pairs

Checking whether 4 symmetric matrices of dimension 276 fit in memory
:Max Core in MB      =  28672.00
 MB in use           =      9.08
 MB left             =  28662.92
 MB needed           =      1.17
 Data fit in memory  = YES
Calculating RI/J V-Matrix + Cholesky decomp.... done (  0.0 sec)
Calculating Nuclear repulsion               ... done (  0.0 sec) ENN=    397.454005851634 Eh

Diagonalization of the overlap matrix:
Smallest eigenvalue                        ... 3.087e-04
Time for diagonalization                   ...    0.009 sec
Threshold for overlap eigenvalues          ... 1.000e-07
Number of eigenvalues below threshold      ... 0
Time for construction of square roots      ...    0.005 sec
Total time needed                          ...    0.014 sec

-------------------
DFT GRID GENERATION
-------------------

General Integration Accuracy     IntAcc      ... 4.388
Radial Grid Type                 RadialGrid  ... OptM3 with GC (2021)
Angular Grid (max. ang.)         AngularGrid ... 4 (Lebedev-302)
Angular grid pruning method      GridPruning ... 4 (adaptive)
Weight generation scheme         WeightScheme... mBecke (2022)
Basis function cutoff            BFCut       ... 1.0000e-11
Integration weight cutoff        WCut        ... 1.0000e-14
Partially contracted basis set               ... off
Rotationally invariant grid construction     ... off
Angular grids for H and He will be reduced by one unit

Total number of grid points                  ...    55211
Total number of batches                      ...      869
Average number of points per batch           ...       63
Average number of grid points per atom       ...     5521
Grids setup in   0.4 sec
Initializing property integral containers    ... done (  0.0 sec)

SHARK setup successfully completed in   0.6 seconds

Maximum memory used throughout the entire STARTUP-calculation: 35.1 MB
-------------------------------------------------------------------------------
                                 ORCA GUESS
                   Start orbitals & Density for SCF / CASSCF
-------------------------------------------------------------------------------

------------
SCF SETTINGS
------------
Hamiltonian:
 Density Functional     Method          .... DFT(GTOs)
 Exchange Functional    Exchange        .... PBE
   PBE kappa parameter   XKappa         ....  0.804000
   PBE mue parameter    XMuePBE         ....  0.219520
 Correlation Functional Correlation     .... PBE
   PBE beta parameter  CBetaPBE         ....  0.066725
 LDA part of GGA corr.  LDAOpt          .... PW91-LDA
 Gradients option       PostSCFGGA      .... off
   NL short-range parameter             ....  6.400000
 RI-approximation to the Coulomb term is turned on
   Number of AuxJ basis functions       .... 414


General Settings:
 Integral files         IntName         .... 3_3_3_2_tetrafluoropropanoic_acid_defluorinated
 Hartree-Fock type      HFTyp           .... RHF
 Total Charge           Charge          ....    1
 Multiplicity           Mult            ....    1
 Number of Electrons    NEL             ....   62
 Basis Dimension        Dim             ....  276
 Nuclear Repulsion      ENuc            ....    397.4540058516 Eh

Convergence Acceleration:
 AO-DIIS                CNVDIIS         .... on
   Start iteration      DIISMaxIt       ....    12
   Startup error        DIISStart       ....  0.200000
   # of expansion vecs  DIISMaxEq       ....     5
   Bias factor          DIISBfac        ....   1.050
   Max. coefficient     DIISMaxC        ....  10.000
 MO-DIIS                CNVKDIIS        .... off
 Trust-Rad. Augm. Hess. CNVTRAH         .... auto
   Auto Start mean grad. ratio tolernc. ....  1.125000
   Auto Start start iteration           ....    50
   Auto Start num. interpolation iter.  ....    10
   Max. Number of Micro iterations      ....    24
   Max. Number of Macro iterations      .... Maxiter - #DIIS iter
   Number of Davidson start vectors     ....     2
   Converg. threshold    (grad. norm)   ....   1.000e-05
   Grad. Scal. Fac. for Micro threshold ....   0.100
   Minimum threshold for Micro iter.    ....   1.000e-02
   NR start threshold (gradient norm)   ....   1.000e-04
   Initial trust radius                 ....   0.400
   Minimum AH scaling param. (alpha)    ....   1.000
   Maximum AH scaling param. (alpha)    .... 1000.000
   Quad. conv. algorithm                .... NR
   White noise on init. David. guess    .... on
   Maximum white noise                  ....   0.010
   Pseudo random numbers                .... off
   Inactive MOs                         .... canonical
   Orbital update algorithm             .... Taylor
   Preconditioner                       .... Diag
   Full preconditioner red. dimension   ....   250
 SOSCF                 CNVSOSCF           .... on
   Start iteration     SOSCFMaxIt         ....   150
   Startup grad/error  SOSCFStart         ....  0.003300
   Hessian update      SOSCFHessUp        .... L-BFGS
   Autom. constraints  SOSCFAutoConstrain .... off
 Level Shifting         CNVShift        .... on
   Level shift para.    LevelShift      ....    0.2500
   Turn off err/grad.   ShiftErr        ....    0.0010
 Zerner damping         CNVZerner       .... off
 Static damping         CNVDamp         .... on
   Fraction old density DampFac         ....    0.7000
   Max. Damping (<1)    DampMax         ....    0.9800
   Min. Damping (>=0)   DampMin         ....    0.0000
   Turn off err/grad.   DampErr         ....    0.1000

SCF Procedure:
 Maximum # iterations   MaxIter         ....   125
 SCF integral mode      SCFMode         .... Direct
   Integral package                     .... SHARK and LIBINT hybrid scheme
 Reset frequency        DirectResetFreq ....    20
 Integral Threshold     Thresh          ....  2.500e-11 Eh
 Primitive CutOff       TCut            ....  2.500e-12 Eh

Convergence Tolerance:
 Convergence Check Mode ConvCheckMode   .... Total+1el-Energy
 Convergence forced     ConvForced      .... 0
 Energy Change          TolE            ....  1.000e-08 Eh
 1-El. energy change                    ....  1.000e-05 Eh
 Orbital Gradient       TolG            ....  1.000e-05
 Orbital Rotation angle TolX            ....  1.000e-05
 DIIS Error             TolErr          ....  5.000e-07

------------------------------
INITIAL GUESS: MODEL POTENTIAL
------------------------------
Loading Hartree-Fock densities                     ... done
Calculating cut-offs                               ... done
Initializing the effective Hamiltonian             ... done
Setting up the integral package (SHARK)            ... done
Starting the Coulomb interaction                   ... done (   0.2 sec)
Making the grid                                    ... done (   0.1 sec)
Mapping shells                                     ... done
Starting the XC term evaluation                    ... done (   0.2 sec)
  promolecular density results
     # of electrons  =     63.001337578
     EX              =    -62.212216052
     EC              =     -2.165060318
     EX+EC           =    -64.377276371
Transforming the Hamiltonian                       ... done (   0.0 sec)
Diagonalizing the Hamiltonian                      ... done (   0.0 sec)
Back transforming the eigenvectors                 ... done (   0.0 sec)
Now organizing SCF variables                       ... done
                      ------------------
                      INITIAL GUESS DONE (   0.5 sec)
                      ------------------
             **** ENERGY FILE WAS UPDATED (3_3_3_2_tetrafluoropropanoic_acid_defluorinated.en.tmp) ****
Finished Guess after   0.6 sec
Maximum memory used throughout the entire GUESS-calculation: 23.2 MB

-------------------------------------------------------------------------------------------
                                      ORCA LEAN-SCF
                              memory conserving SCF solver
-------------------------------------------------------------------------------------------

--------------------
CPCM SOLVATION MODEL
--------------------
CPCM parameters:
  Epsilon                                         ...      78.3550
  Refrac                                          ...       1.3328
  Rsolv                                           ...       1.3000
  Surface type                                    ... GAUSSIAN VDW
  Discretization scheme                           ... Constant charge density
    Threshold for H atoms                         ...       5.0000 (charges/Ang^2)
    Threshold for non-H atoms                     ...       5.0000 (charges/Ang^2)
  Epsilon function type                           ...         CPCM
Solvent:                                          ... WATER
SMD-CDS solvent descriptors:
  Soln                                            ...       1.3328
  Soln25                                          ...       1.3323
  Sola                                            ...       0.0000
  Solb                                            ...       0.0000
  Solg                                            ...       0.0000
  Solc                                            ...       0.0000
  Solh                                            ...       0.0000
Radii:
  Scheme                                          ... Element-dependent radii
  Radius for C  used is    3.4960 Bohr (=   1.8500 Ang.)
  Radius for O  used is    2.8724 Bohr (=   1.5200 Ang.)
  Radius for H  used is    2.2677 Bohr (=   1.2000 Ang.)
  Radius for F  used is    3.2692 Bohr (=   1.7300 Ang.)
Calculating surface                               ...        done! (  0.0s)
Cavity surface points                             ...          897
Cavity Volume                                     ...     691.4930
Cavity Surface-area                               ...     458.1639
Calculating surface distance matrix               ...        done! (  0.0s)
Performing Cholesky decomposition & store         ...        done! (  0.0s)
Overall time for CPCM initialization              ...                 0.0s

----------------------------------------D-I-I-S--------------------------------------------
Iteration    Energy (Eh)           Delta-E    RMSDP     MaxDP     DIISErr   Damp  Time(sec)
-------------------------------------------------------------------------------------------
               ***  Starting incremental Fock matrix formation  ***
    1    -564.6096750615724886     0.00e+00  1.94e-03  1.05e-01  2.56e-01  0.700   1.7
Warning: op=0 Small HOMO/LUMO gap (  -0.010) - skipping pre-diagonalization
         Will do a full diagonalization
    2    -564.7475301864983521    -1.38e-01  8.26e-04  3.84e-02  5.90e-02  0.700   1.6
                               ***Turning on AO-DIIS***
    3    -564.7711397766361188    -2.36e-02  3.90e-04  1.65e-02  4.98e-02  0.700   1.5
    4    -564.7923512260877033    -2.12e-02  7.29e-04  2.51e-02  5.07e-02  0.000   1.5
    5    -564.8506009623729369    -5.82e-02  3.00e-04  9.54e-03  1.54e-02  0.000   1.5
    6    -564.8531004281051082    -2.50e-03  1.93e-04  5.69e-03  1.24e-02  0.000   1.5
    7    -564.8539234484171629    -8.23e-04  1.33e-04  4.43e-03  7.90e-03  0.000   1.5
    8    -564.8542617912994501    -3.38e-04  9.58e-05  3.45e-03  8.39e-03  0.000   1.5
                              *** Initializing SOSCF ***
---------------------------------------S-O-S-C-F--------------------------------------
Iteration    Energy (Eh)           Delta-E    RMSDP     MaxDP     MaxGrad    Time(sec)
--------------------------------------------------------------------------------------
    9    -564.8545137553851418    -2.52e-04  5.97e-05  2.39e-03  1.59e-03     1.5
               *** Restarting incremental Fock matrix formation ***
   10    -564.8545740248391667    -6.03e-05  1.47e-04  8.42e-03  2.39e-03     1.7
   11    -564.8544641342211889     1.10e-04  7.70e-05  3.69e-03  3.30e-03     1.4
   12    -564.8546706762540452    -2.07e-04  4.23e-05  2.04e-03  8.56e-04     1.4
   13    -564.8546517626514287     1.89e-05  2.79e-05  1.44e-03  1.29e-03     1.4
   14    -564.8546812079518986    -2.94e-05  8.26e-06  2.62e-04  1.48e-04     1.4
   15    -564.8546809870244942     2.21e-07  3.98e-06  1.74e-04  2.44e-04     1.4
   16    -564.8546817162059597    -7.29e-07  1.44e-06  6.33e-05  2.18e-05     1.4
   17    -564.8546817389853913    -2.28e-08  1.43e-06  6.74e-05  9.22e-06     1.3
   18    -564.8546817435772027    -4.59e-09  3.93e-07  1.67e-05  1.10e-05     1.3
                 **** Energy Check signals convergence ****

               *****************************************************
               *                     SUCCESS                       *
               *           SCF CONVERGED AFTER  18 CYCLES          *
               *****************************************************


SMD CDS free energy correction energy :                 5.92897     Kcal/mol
Total Energy after SMD CDS correction =              -564.845233326 Eh
             **** ENERGY FILE WAS UPDATED (3_3_3_2_tetrafluoropropanoic_acid_defluorinated.en.tmp) ****

----------------
TOTAL SCF ENERGY
----------------

Total Energy       :       -564.84523332597723 Eh          -15370.22021 eV

Components:
Nuclear Repulsion  :        397.45400585163401 Eh           10815.27334 eV
Electronic Energy  :       -962.16645019774774 Eh          -26181.88017 eV
One Electron Energy:      -1555.01038621716907 Eh          -42313.98381 eV
Two Electron Energy:        592.84393601942134 Eh           16132.10364 eV
CPCM Dielectric    :         -0.14223739707157 Eh              -3.87048 eV
SMD CDS (Gcds)     :          0.00944841720797 Eh               0.25710 eV

Virial components:
Potential Energy   :      -1127.67319827936080 Eh          -30685.54775 eV
Kinetic Energy     :        562.82796495338346 Eh           15315.32754 eV
Virial Ratio       :          2.00358416514141

DFT components:
N(Alpha)           :       31.000006741431 electrons
N(Beta)            :       31.000006741431 electrons
N(Total)           :       62.000013482862 electrons
E(X)               :      -62.462445868628 Eh       
E(C)               :       -2.124459035597 Eh       
E(XC)              :      -64.586904904225 Eh       

CPCM Solvation Model Properties:
Surface-charge          :         -1.01715683715388
Corrected charge        :         -1.00000000000000
Outlying charge corr.   :          0.00002501302486 Eh               0.00068 eV
Free-energy (cav+disp)  :          0.00944841720797 Eh               0.25710 eV

---------------
SCF CONVERGENCE
---------------

  Last Energy change         ...    4.5918e-09  Tolerance :   1.0000e-08
  Last MAX-Density change    ...    1.6738e-05  Tolerance :   1.0000e-07
  Last RMS-Density change    ...    3.9267e-07  Tolerance :   5.0000e-09
  Last DIIS Error            ...    1.5866e-03  Tolerance :   5.0000e-07
  Last Orbital Gradient      ...    1.1003e-05  Tolerance :   1.0000e-05
  Last Orbital Rotation      ...    1.9806e-05  Tolerance :   1.0000e-05


----------------
ORBITAL ENERGIES
----------------

  NO   OCC          E(Eh)            E(eV) 
   0   2.0000     -24.354219      -662.7120 
   1   2.0000     -24.329880      -662.0497 
   2   2.0000     -24.328938      -662.0241 
   3   2.0000     -18.867416      -513.4085 
   4   2.0000     -18.847981      -512.8796 
   5   2.0000     -10.192058      -277.3400 
   6   2.0000     -10.101881      -274.8862 
   7   2.0000     -10.095388      -274.7095 
   8   2.0000      -1.259103       -34.2619 
   9   2.0000      -1.177268       -32.0351 
  10   2.0000      -1.164776       -31.6952 
  11   2.0000      -1.100093       -29.9350 
  12   2.0000      -1.021748       -27.8032 
  13   2.0000      -0.805249       -21.9119 
  14   2.0000      -0.677194       -18.4274 
  15   2.0000      -0.627297       -17.0696 
  16   2.0000      -0.594846       -16.1866 
  17   2.0000      -0.585191       -15.9239 
  18   2.0000      -0.575491       -15.6599 
  19   2.0000      -0.523866       -14.2551 
  20   2.0000      -0.486178       -13.2296 
  21   2.0000      -0.475096       -12.9280 
  22   2.0000      -0.452251       -12.3064 
  23   2.0000      -0.450470       -12.2579 
  24   2.0000      -0.429175       -11.6784 
  25   2.0000      -0.421560       -11.4712 
  26   2.0000      -0.405151       -11.0247 
  27   2.0000      -0.391142       -10.6435 
  28   2.0000      -0.387947       -10.5566 
  29   2.0000      -0.353104        -9.6085 
  30   2.0000      -0.333214        -9.0672 
  31   0.0000      -0.313235        -8.5236 
  32   0.0000      -0.092644        -2.5210 
  33   0.0000      -0.002320        -0.0631 
  34   0.0000       0.027981         0.7614 
  35   0.0000       0.039625         1.0783 
  36   0.0000       0.062032         1.6880 
  37   0.0000       0.079078         2.1518 
  38   0.0000       0.095954         2.6110 
  39   0.0000       0.113899         3.0994 
  40   0.0000       0.145338         3.9549 
  41   0.0000       0.154619         4.2074 
*Only the first 10 virtual orbitals were printed.

                    ********************************
                    * MULLIKEN POPULATION ANALYSIS *
                    ********************************

-----------------------
MULLIKEN ATOMIC CHARGES
-----------------------
   0 C :    0.388466
   1 C :    0.228601
   2 O :   -0.107747
   3 H :    0.225127
   4 F :   -0.095010
   5 C :    0.325190
   6 H :    0.307301
   7 F :   -0.095485
   8 O :   -0.127618
   9 F :   -0.048824
Sum of atomic charges:    1.0000000

--------------------------------
MULLIKEN REDUCED ORBITAL CHARGES
--------------------------------
  0 C s       :     3.027703  s :     3.027703
      pz      :     0.670164  p :     2.182013
      px      :     0.793401
      py      :     0.718449
      dz2     :     0.077180  d :     0.364480
      dxz     :     0.074594
      dyz     :     0.075771
      dx2y2   :     0.069778
      dxy     :     0.067156
      f0      :     0.004575  f :     0.037338
      f+1     :     0.005754
      f-1     :     0.008302
      f+2     :     0.004847
      f-2     :     0.004702
      f+3     :     0.005777
      f-3     :     0.003380

  1 C s       :     3.319130  s :     3.319130
      pz      :     0.364663  p :     2.380667
      px      :     0.951243
      py      :     1.064761
      dz2     :     0.008228  d :     0.066590
      dxz     :     0.011294
      dyz     :     0.012773
      dx2y2   :     0.017487
      dxy     :     0.016808
      f0      :     0.000466  f :     0.005012
      f+1     :     0.000714
      f-1     :     0.000288
      f+2     :     0.000602
      f-2     :     0.000762
      f+3     :     0.001215
      f-3     :     0.000965

  2 O s       :     3.746038  s :     3.746038
      pz      :     1.603011  p :     4.330708
      px      :     1.477675
      py      :     1.250023
      dz2     :     0.003889  d :     0.029674
      dxz     :     0.006104
      dyz     :     0.003259
      dx2y2   :     0.007174
      dxy     :     0.009248
      f0      :     0.000234  f :     0.001325
      f+1     :     0.000183
      f-1     :     0.000165
      f+2     :     0.000026
      f-2     :     0.000202
      f+3     :     0.000247
      f-3     :     0.000267

  3 H s       :     0.735804  s :     0.735804
      pz      :     0.005614  p :     0.037495
      px      :     0.009568
      py      :     0.022313
      dz2     :     0.000151  d :     0.001574
      dxz     :     0.000138
      dyz     :     0.000193
      dx2y2   :     0.000310
      dxy     :     0.000783

  4 F s       :     3.904839  s :     3.904839
      pz      :     1.800537  p :     5.172961
      px      :     1.603010
      py      :     1.769414
      dz2     :     0.002135  d :     0.016477
      dxz     :     0.003748
      dyz     :     0.002122
      dx2y2   :     0.003443
      dxy     :     0.005029
      f0      :     0.000080  f :     0.000733
      f+1     :     0.000086
      f-1     :     0.000047
      f+2     :     0.000071
      f-2     :     0.000169
      f+3     :     0.000121
      f-3     :     0.000159

  5 C s       :     3.074366  s :     3.074366
      pz      :     0.789397  p :     2.326423
      px      :     0.808513
      py      :     0.728513
      dz2     :     0.016447  d :     0.250138
      dxz     :     0.027544
      dyz     :     0.069896
      dx2y2   :     0.061761
      dxy     :     0.074491
      f0      :     0.002493  f :     0.023882
      f+1     :     0.001654
      f-1     :     0.002253
      f+2     :     0.002775
      f-2     :     0.002712
      f+3     :     0.006814
      f-3     :     0.005181

  6 H s       :     0.613304  s :     0.613304
      pz      :     0.024944  p :     0.071012
      px      :     0.018827
      py      :     0.027241
      dz2     :     0.001047  d :     0.008384
      dxz     :     0.000438
      dyz     :     0.002656
      dx2y2   :     0.001951
      dxy     :     0.002291

  7 F s       :     3.905682  s :     3.905682
      pz      :     1.735763  p :     5.172612
      px      :     1.875017
      py      :     1.561833
      dz2     :     0.002344  d :     0.016462
      dxz     :     0.001239
      dyz     :     0.006120
      dx2y2   :     0.003870
      dxy     :     0.002890
      f0      :     0.000081  f :     0.000729
      f+1     :     0.000010
      f-1     :     0.000155
      f+2     :     0.000201
      f-2     :     0.000095
      f+3     :     0.000090
      f-3     :     0.000098

  8 O s       :     3.829642  s :     3.829642
      pz      :     1.511662  p :     4.265097
      px      :     1.410210
      py      :     1.343225
      dz2     :     0.003127  d :     0.031113
      dxz     :     0.000519
      dyz     :     0.010329
      dx2y2   :     0.008080
      dxy     :     0.009057
      f0      :     0.000228  f :     0.001766
      f+1     :     0.000040
      f-1     :     0.000269
      f+2     :     0.000341
      f-2     :     0.000063
      f+3     :     0.000500
      f-3     :     0.000325

  9 F s       :     3.907217  s :     3.907217
      pz      :     1.503557  p :     5.124445
      px      :     1.800999
      py      :     1.819889
      dz2     :     0.006763  d :     0.016444
      dxz     :     0.004150
      dyz     :     0.004086
      dx2y2   :     0.000618
      dxy     :     0.000827
      f0      :     0.000226  f :     0.000719
      f+1     :     0.000176
      f-1     :     0.000180
      f+2     :     0.000050
      f-2     :     0.000074
      f+3     :     0.000006
      f-3     :     0.000007



                     *******************************
                     * LOEWDIN POPULATION ANALYSIS *
                     *******************************

----------------------
LOEWDIN ATOMIC CHARGES
----------------------
   0 C :   -0.672434
   1 C :    0.423196
   2 O :    0.509596
   3 H :    0.089816
   4 F :    0.247634
   5 C :   -0.409823
   6 H :   -0.017584
   7 F :    0.248906
   8 O :    0.287936
   9 F :    0.292757

-------------------------------
LOEWDIN REDUCED ORBITAL CHARGES
-------------------------------
  0 C s       :     2.761959  s :     2.761959
      pz      :     0.788135  p :     2.521468
      px      :     0.894489
      py      :     0.838844
      dz2     :     0.256639  d :     1.147114
      dxz     :     0.198057
      dyz     :     0.248647
      dx2y2   :     0.197852
      dxy     :     0.245920
      f0      :     0.032679  f :     0.241893
      f+1     :     0.036177
      f-1     :     0.045933
      f+2     :     0.037479
      f-2     :     0.032760
      f+3     :     0.031452
      f-3     :     0.025414

  1 C s       :     2.854553  s :     2.854553
      pz      :     0.390553  p :     2.422594
      px      :     0.991862
      py      :     1.040179
      dz2     :     0.028499  d :     0.268911
      dxz     :     0.049093
      dyz     :     0.031573
      dx2y2   :     0.073175
      dxy     :     0.086570
      f0      :     0.002644  f :     0.030745
      f+1     :     0.004270
      f-1     :     0.001968
      f+2     :     0.004654
      f-2     :     0.005667
      f+3     :     0.005881
      f-3     :     0.005662

  2 O s       :     3.214677  s :     3.214677
      pz      :     1.460192  p :     4.192414
      px      :     1.459379
      py      :     1.272843
      dz2     :     0.008442  d :     0.077238
      dxz     :     0.007951
      dyz     :     0.010182
      dx2y2   :     0.022179
      dxy     :     0.028485
      f0      :     0.000435  f :     0.006076
      f+1     :     0.000399
      f-1     :     0.000547
      f+2     :     0.000392
      f-2     :     0.001047
      f+3     :     0.001492
      f-3     :     0.001764

  3 H s       :     0.730844  s :     0.730844
      pz      :     0.029843  p :     0.150601
      px      :     0.037930
      py      :     0.082828
      dz2     :     0.001919  d :     0.028739
      dxz     :     0.001671
      dyz     :     0.008148
      dx2y2   :     0.007444
      dxy     :     0.009556

  4 F s       :     3.606123  s :     3.606123
      pz      :     1.753283  p :     5.113912
      px      :     1.620783
      py      :     1.739846
      dz2     :     0.003618  d :     0.030725
      dxz     :     0.006906
      dyz     :     0.003903
      dx2y2   :     0.006331
      dxy     :     0.009966
      f0      :     0.000167  f :     0.001606
      f+1     :     0.000184
      f-1     :     0.000104
      f+2     :     0.000156
      f-2     :     0.000370
      f+3     :     0.000289
      f-3     :     0.000337

  5 C s       :     2.752223  s :     2.752223
      pz      :     0.787569  p :     2.623897
      px      :     0.897461
      py      :     0.938867
      dz2     :     0.075180  d :     0.884525
      dxz     :     0.096857
      dyz     :     0.203334
      dx2y2   :     0.237461
      dxy     :     0.271694
      f0      :     0.010422  f :     0.149177
      f+1     :     0.007532
      f-1     :     0.015657
      f+2     :     0.019440
      f-2     :     0.017612
      f+3     :     0.043971
      f-3     :     0.034544

  6 H s       :     0.621010  s :     0.621010
      pz      :     0.088788  p :     0.303436
      px      :     0.081609
      py      :     0.133039
      dz2     :     0.011554  d :     0.093137
      dxz     :     0.005136
      dyz     :     0.026929
      dx2y2   :     0.022328
      dxy     :     0.027191

  7 F s       :     3.606066  s :     3.606066
      pz      :     1.711870  p :     5.112676
      px      :     1.801429
      py      :     1.599377
      dz2     :     0.003631  d :     0.030748
      dxz     :     0.002053
      dyz     :     0.012293
      dx2y2   :     0.007755
      dxy     :     0.005017
      f0      :     0.000176  f :     0.001605
      f+1     :     0.000018
      f-1     :     0.000326
      f+2     :     0.000442
      f-2     :     0.000220
      f+3     :     0.000216
      f-3     :     0.000206

  8 O s       :     3.418297  s :     3.418297
      pz      :     1.417864  p :     4.220640
      px      :     1.310708
      py      :     1.492068
      dz2     :     0.008375  d :     0.066964
      dxz     :     0.000818
      dyz     :     0.016150
      dx2y2   :     0.023742
      dxy     :     0.017879
      f0      :     0.000561  f :     0.006162
      f+1     :     0.000097
      f-1     :     0.001061
      f+2     :     0.000945
      f-2     :     0.000191
      f+3     :     0.001678
      f-3     :     0.001631

  9 F s       :     3.609489  s :     3.609489
      pz      :     1.569392  p :     5.065556
      px      :     1.737179
      py      :     1.758985
      dz2     :     0.013477  d :     0.030626
      dxz     :     0.007721
      dyz     :     0.007423
      dx2y2   :     0.000734
      dxy     :     0.001271
      f0      :     0.000496  f :     0.001572
      f+1     :     0.000392
      f-1     :     0.000407
      f+2     :     0.000095
      f-2     :     0.000161
      f+3     :     0.000007
      f-3     :     0.000014



                      *****************************
                      * MAYER POPULATION ANALYSIS *
                      *****************************

  NA   - Mulliken gross atomic population
  ZA   - Total nuclear charge
  QA   - Mulliken gross atomic charge
  VA   - Mayer's total valence
  BVA  - Mayer's bonded valence
  FA   - Mayer's free valence

  ATOM       NA         ZA         QA         VA         BVA        FA
  0 C      5.6115     6.0000     0.3885     4.6188     4.6188    -0.0000
  1 C      5.7714     6.0000     0.2286     3.3247     3.3247    -0.0000
  2 O      8.1077     8.0000    -0.1077     2.4457     2.4457    -0.0000
  3 H      0.7749     1.0000     0.2251     0.9769     0.9769    -0.0000
  4 F      9.0950     9.0000    -0.0950     1.2522     1.2522    -0.0000
  5 C      5.6748     6.0000     0.3252     4.3354     4.3354    -0.0000
  6 H      0.6927     1.0000     0.3073     0.9509     0.9509    -0.0000
  7 F      9.0955     9.0000    -0.0955     1.2508     1.2508    -0.0000
  8 O      8.1276     8.0000    -0.1276     2.4026     2.4026     0.0000
  9 F      9.0488     9.0000    -0.0488     1.3253     1.3253    -0.0000

  Mayer bond orders larger than 0.100000
B(  0-C ,  1-C ) :   0.9455 B(  0-C ,  4-F ) :   1.2056 B(  0-C ,  7-F ) :   1.2013 
B(  0-C ,  9-F ) :   1.1792 B(  1-C ,  3-H ) :   0.9037 B(  1-C ,  5-C ) :   0.9954 
B(  1-C ,  8-O ) :   0.3002 B(  2-O ,  5-C ) :   1.3566 B(  2-O ,  6-H ) :   0.8954 
B(  2-O ,  8-O ) :   0.1288 B(  5-C ,  8-O ) :   1.8784 

-------
TIMINGS
-------

Total SCF time: 0 days 0 hours 0 min 28 sec 

Total time                  ....      28.037 sec
Sum of individual times     ....      26.736 sec  ( 95.4%)

SCF preparation             ....       0.089 sec  (  0.3%)
Fock matrix formation       ....      26.097 sec  ( 93.1%)
  Startup                   ....       0.055 sec  (  0.2% of F)
  Split-RI-J                ....       6.958 sec  ( 26.7% of F)
  XC integration            ....      12.932 sec  ( 49.6% of F)
    Basis function eval.    ....       3.588 sec  ( 27.7% of XC)
    Density eval.           ....       3.844 sec  ( 29.7% of XC)
    XC-Functional eval.     ....       0.447 sec  (  3.5% of XC)
    XC-Potential eval.      ....       4.689 sec  ( 36.3% of XC)
  CPCM terms                ....       7.312 sec  ( 28.0% of F)
Diagonalization             ....       0.000 sec  (  0.0%)
Density matrix formation    ....       0.070 sec  (  0.2%)
Total Energy calculation    ....       0.007 sec  (  0.0%)
Population analysis         ....       0.053 sec  (  0.2%)
Orbital Transformation      ....       0.069 sec  (  0.2%)
Orbital Orthonormalization  ....       0.000 sec  (  0.0%)
DIIS solution               ....       0.225 sec  (  0.8%)
SOSCF solution              ....       0.125 sec  (  0.4%)
Finished LeanSCF after  28.1 sec

Maximum memory used throughout the entire LEANSCF-calculation: 27.3 MB

------------------------------------------------------------------------------
                         ORCA PROPERTY INTEGRAL CALCULATIONS
------------------------------------------------------------------------------

GBWName                                   ... 3_3_3_2_tetrafluoropropanoic_acid_defluorinated.gbw
Number of atoms                           ...     10
Number of basis functions                 ...    276
Max core memory                           ...  28672 MB

Dipole integrals                          ... YES
Quadrupole integrals                      ...  NO
Linear momentum integrals                 ...  NO
Angular momentum integrals                ...  NO
Higher moments length integrals           ...  NO
Higher moments velocity integrals         ...  NO
Kinetic energy integrals                  ...  NO
GIAO right hand sides                     ...  NO
GIAO dipole derivative integrals          ...  NO
SOC integrals                             ...  NO
EPR diamagnetic integrals (GIAO)          ...  NO
EPR gauge integrals                       ...  NO
Field gradient integrals                  ...  NO (   0 nuclei)
Spin-dipole/Fermi contact integrals       ...  NO (   0 nuclei)
Contact density integrals                 ...  NO (   0 nuclei)
Nucleus-orbit integrals                   ...  NO (   0 nuclei)
Geometric perturbations                   ...  NO (  10 nuclei)

Choice of electric origin   ... Center of mass
Position of electric origin ... (-10.2709,  1.2572, -0.0695) 
Choice of magnetic origin   ... GIAO
Position of magnetic origin ... (  0.0000,  0.0000,  0.0000) 

Calculating integrals                     ... Electric Dipole (Length)     done (  0.0 sec)

Property integrals calculated in   0.0 sec

Maximum memory used throughout the entire PROPINT-calculation: 23.8 MB


-------------------------------------------------------------------------------
                          DFT DISPERSION CORRECTION                            
                                                                               
                                DFTD4 V3.4.0                                   
-------------------------------------------------------------------------------
The PBE functional is recognized
Active option DFTDOPT                   ...         5   

-------------------------   ----------------
Dispersion correction           -0.006821754
-------------------------   ----------------


-------------------------   --------------------
FINAL SINGLE POINT ENERGY      -564.852055079666
-------------------------   --------------------

------------------------------------------------------------------------------
                         ORCA SCF GRADIENT CALCULATION
------------------------------------------------------------------------------

Nuc. rep. gradient        (SHARK) ... done (  0.0 sec)
HCore & Overlap gradient  (SHARK) ... done (  0.2 sec)
Split-RIJ-J gradient      (SHARK) ... done (  2.0 sec)
XC gradient                       ... done (  4.8 sec)
CPCM gradient                     ... done (  1.2 sec)
SMD gradient                      ... done (  0.0 sec)
Dispersion correction             ... done (  0.0 sec)

-------------------
DISPERSION GRADIENT
-------------------

   1   C   :   -0.000170056   -0.000020163    0.000051518
   2   C   :   -0.000023044    0.000037821    0.000035639
   3   O   :    0.000170873    0.000085649   -0.000034965
   4   H   :   -0.000016577    0.000086914   -0.000004825
   5   F   :   -0.000127091    0.000024207    0.000047622
   6   C   :    0.000194393    0.000020787   -0.000048964
   7   H   :    0.000052901    0.000022232   -0.000011528
   8   F   :   -0.000119910   -0.000092446    0.000093087
   9   O   :    0.000207008   -0.000126817   -0.000069305
  10   F   :   -0.000168496   -0.000038183   -0.000058279

Difference to translation invariance:
           :    0.0000000000   -0.0000000000   -0.0000000000

Difference to rotation invariance:
           :   -0.0000000000   -0.0000000000   -0.0000000000

Norm of the Dispersion gradient    ...    0.0005219598
RMS gradient                       ...    0.0000952964
MAX gradient                       ...    0.0002070075

------------------
CARTESIAN GRADIENT
------------------

   1   C   :    0.016517855    0.006718203   -0.037177874
   2   C   :    0.027944287    0.032026813    0.075321509
   3   O   :   -0.003203941   -0.005192021    0.007551494
   4   H   :    0.002872183   -0.016100430   -0.015710831
   5   F   :   -0.003063476   -0.004168394    0.000196407
   6   C   :   -0.036564932    0.000890326   -0.050330962
   7   H   :   -0.005393246   -0.014182392    0.002309294
   8   F   :   -0.004956980   -0.000045349    0.002995624
   9   O   :    0.020971355    0.008677791    0.014331145
  10   F   :   -0.015123106   -0.008624549    0.000514194

Difference to translation invariance:
           :   -0.0000000000    0.0000000000    0.0000000000

Difference to rotation invariance:
           :   -0.0009455830   -0.0010647177   -0.0034531101

Norm of the Cartesian gradient     ...    0.1223903055
RMS gradient                       ...    0.0223453104
MAX gradient                       ...    0.0753215086

-------
TIMINGS
-------

Total SCF gradient time     ....        8.225 sec

Densities                   ....       0.001 sec  (  0.0%)
One electron gradient       ....       0.242 sec  (  2.9%)
RI-J Coulomb gradient       ....       1.995 sec  ( 24.3%)
XC gradient                 ....       4.806 sec  ( 58.4%)
CPCM gradient               ....       1.152 sec  ( 14.0%)
   A-Matrix (El+Nuc)        ....       0.023 sec  (  0.3%)
   Potential                ....       1.128 sec  ( 13.7%)
SMD gradient                ....       0.001 sec  (  0.0%)

Maximum memory used throughout the entire SCFGRAD-calculation: 42.2 MB
------------------------------------------------------------------------------
                         ORCA GEOMETRY RELAXATION STEP
------------------------------------------------------------------------------

Reading the OPT-File                    .... done
Getting information on internals        .... done
Copying old internal coords+grads       .... done
Making the new internal coordinates     .... (2022 redundants) done
Validating the new internal coordinates .... (2022 redundants) done
Calculating the B-matrix                .... done
Calculating the G,G- and P matrices     .... done
Transforming gradient to internals      .... done
Projecting the internal gradient        .... done
Number of atoms                         ....  10
Number of internal coordinates          ....  33
Current Energy                          ....  -564.852055080 Eh
Current gradient norm                   ....     0.122390306 Eh/bohr
Maximum allowed component of the step   ....  0.300
Current trust radius                    ....  0.300
Evaluating the initial hessian          ....  (Almloef) done
Projecting the Hessian                  .... done
Forming the augmented Hessian           .... done
Diagonalizing the augmented Hessian     .... done
Last element of RFO vector              ....  0.845462821
Lowest eigenvalues of augmented Hessian:
 -0.036254978  0.010009508  0.010940963  0.029220976  0.042915390
Length of the computed step             ....  0.631647274
Warning: the length of the step is outside the trust region - taking restricted step instead
The input lambda is                     ....     0.009000
   iter:   5  x=   -0.006850  g=  312.657750 f(x)=     2.511398
   iter:  10  x=   -0.120645  g=    1.498961 f(x)=     0.026488
   iter:  15  x=   -0.124739  g=    0.984646 f(x)=     0.000000
The output lambda is                    ....    -0.124739 (15 iterations)
The final length of the internal step   ....  0.300000000
Converting the step to Cartesian space:
 Initial RMS(Int)=    0.0522232968
Transforming coordinates:
 Iter   0:  RMS(Cart)=    0.0464411591 RMS(Int)=    0.0529620990
 Iter   5:  RMS(Cart)=    0.0000001968 RMS(Int)=    0.0000001166
done
Storing new coordinates                 .... done

                                .--------------------.
          ----------------------|Geometry convergence|-------------------------
          Item                value                   Tolerance       Converged
          ---------------------------------------------------------------------
          RMS gradient        0.0135445208            0.0001000000      NO
          MAX gradient        0.0286821016            0.0003000000      NO
          RMS step            0.0522232968            0.0020000000      NO
          MAX step            0.1633934153            0.0040000000      NO
          -------------------------------------------------------------------------
          ........................................................
          Max(Bonds)      0.0123      Max(Angles)    4.23
          Max(Dihed)        9.36      Max(Improp)    0.00
          ---------------------------------------------------------------------

The optimization has not yet converged - more geometry cycles are needed


    ---------------------------------------------------------------------------
                         Redundant Internal Coordinates
                            (Angstroem and degrees)

        Definition                    Value    dE/dq     Step     New-Value
    ----------------------------------------------------------------------------
     1. B(C   1,C   0)                1.5457  0.009094 -0.0101    1.5356   
     2. B(H   3,C   1)                1.0929 -0.008956  0.0099    1.1027   
     3. B(F   4,C   0)                1.3452  0.000204 -0.0001    1.3451   
     4. B(C   5,O   2)                1.3099 -0.020402  0.0123    1.3223   
     5. B(C   5,C   1)                1.5211 -0.003402  0.0035    1.5247   
     6. B(H   6,O   2)                0.9723 -0.010406  0.0089    0.9811   
     7. B(F   7,C   0)                1.3451  0.001199 -0.0009    1.3442   
     8. B(O   8,C   5)                1.2141 -0.008114  0.0036    1.2177   
     9. B(F   9,C   0)                1.3456  0.005817 -0.0042    1.3414   
    10. A(C   1,C   0,F   4)          109.84  0.003823   -0.25    109.59   
    11. A(F   4,C   0,F   7)          107.22 -0.008060    1.31    108.53   
    12. A(F   4,C   0,F   9)          107.38 -0.009750    0.87    108.25   
    13. A(F   7,C   0,F   9)          108.70 -0.014447    1.31    110.01   
    14. A(C   1,C   0,F   9)          111.79  0.028682   -3.41    108.39   
    15. A(C   1,C   0,F   7)          111.71 -0.002166    0.38    112.09   
    16. A(C   0,C   1,C   5)          115.23 -0.026109    4.23    119.46   
    17. A(C   0,C   1,H   3)          109.80  0.001180    1.56    111.36   
    18. A(H   3,C   1,C   5)          110.23 -0.004903    2.46    112.69   
    19. A(C   5,O   2,H   6)          108.63 -0.019873    2.26    110.88   
    20. A(O   2,C   5,O   8)          121.41 -0.010137    1.26    122.67   
    21. A(C   1,C   5,O   2)          113.19 -0.016827    2.14    115.32   
    22. A(C   1,C   5,O   8)          124.54  0.023707   -2.13    122.41   
    23. D(H   3,C   1,C   0,F   7)   -168.26 -0.005877    2.03   -166.23   
    24. D(C   5,C   1,C   0,F   4)   -174.58  0.010993   -4.13   -178.71   
    25. D(H   3,C   1,C   0,F   4)    -49.41 -0.014803    3.75    -45.67   
    26. D(C   5,C   1,C   0,F   7)     66.58  0.019919   -5.85     60.73   
    27. D(H   3,C   1,C   0,F   9)     69.68 -0.006257    2.51     72.19   
    28. D(O   2,C   5,C   1,H   3)     43.06  0.017980   -5.94     37.12   
    29. D(O   2,C   5,C   1,C   0)    168.00 -0.004837    1.51    169.51   
    30. D(C   1,C   5,O   2,H   6)     -4.16 -0.005691    2.73     -1.43   
    31. D(O   8,C   5,C   1,H   3)   -147.53 -0.003233    1.91   -145.61   
    32. D(O   8,C   5,O   2,H   6)   -173.94  0.010703   -4.44   -178.38   
    33. D(O   8,C   5,C   1,C   0)    -22.59 -0.026050    9.36    -13.23   
    ----------------------------------------------------------------------------

Geometry step timings:
Preparation and reading OPT file:      0.000 s ( 1.765 %)
Internal coordinates            :      0.000 s ( 3.530 %)
B/P matrices and projection     :      0.000 s (20.019 %)
Hessian update/contruction      :      0.000 s (13.888 %)
Making the step                 :      0.001 s (27.775 %)
Converting the step to Cartesian:      0.000 s ( 3.994 %)
Storing new data                :      0.000 s ( 2.833 %)
Checking convergence            :      0.000 s ( 3.994 %)
Final printing                  :      0.000 s (22.155 %)
Total time                      :      0.002 s

Time for energy+gradient        :     37.803 s
Time for complete geometry iter :     37.841 s

         *************************************************************
         *                GEOMETRY OPTIMIZATION CYCLE   2            *
         *************************************************************
---------------------------------
CARTESIAN COORDINATES (ANGSTROEM)
---------------------------------
  C     -6.434476    0.609153    0.264496
  C     -5.160195    1.463942    0.204494
  O     -2.913210    1.734189   -0.611482
  H     -5.378637    2.474095   -0.180092
  F     -7.433036    1.326906    0.809377
  C     -3.893751    0.871760   -0.403801
  H     -3.183076    2.640327   -0.349411
  F     -6.261397   -0.505563    0.995527
  O     -3.777547   -0.318926   -0.630828
  F     -6.786075    0.286127   -0.989052

----------------------------
CARTESIAN COORDINATES (A.U.)
----------------------------
  NO LB      ZA    FRAG     MASS         X           Y           Z
   0 C     6.0000    0    12.011  -12.159398    1.151133    0.499826
   1 C     6.0000    0    12.011   -9.751355    2.766450    0.386438
   2 O     8.0000    0    15.999   -5.505169    3.277142   -1.155534
   3 H     1.0000    0     1.008  -10.164151    4.675362   -0.340324
   4 F     9.0000    0    18.998  -14.046402    2.507490    1.529501
   5 C     6.0000    0    12.011   -7.358123    1.647387   -0.763073
   6 H     1.0000    0     1.008   -6.015142    4.989496   -0.660291
   7 F     9.0000    0    18.998  -11.832325   -0.955377    1.881274
   8 O     8.0000    0    15.999   -7.138529   -0.602682   -1.192092
   9 F     9.0000    0    18.998  -12.823824    0.540701   -1.869037

--------------------------------
INTERNAL COORDINATES (ANGSTROEM)
--------------------------------
 C      0   0   0     0.000000000000     0.00000000     0.00000000
 C      1   0   0     1.535596949131     0.00000000     0.00000000
 O      2   1   0     2.405782643597   148.30275058     0.00000000
 H      2   1   3     1.102738379492   111.04855904   123.32608792
 F      1   2   3     1.345059722139   109.56312087   191.03543277
 C      3   2   1     1.322261529201    34.99973973   342.61687557
 H      3   2   1     0.981119681947    75.89179033   161.34635420
 F      1   2   3     1.344230558817   112.08677190    70.49303075
 O      6   3   2     1.217692949926   122.52865603   182.83004440
 F      1   2   3     1.341399082071   108.36338179   308.89954065

---------------------------
INTERNAL COORDINATES (A.U.)
---------------------------
 C      0   0   0     0.000000000000     0.00000000     0.00000000
 C      1   0   0     2.901857685942     0.00000000     0.00000000
 O      2   1   0     4.546270334139   148.30275058     0.00000000
 H      2   1   3     2.083873534605   111.04855904   123.32608792
 F      1   2   3     2.541794508611   109.56312087   191.03543277
 C      3   2   1     2.498712167609    34.99973973   342.61687557
 H      3   2   1     1.854047503480    75.89179033   161.34635420
 F      1   2   3     2.540227617012   112.08677190    70.49303075
 O      6   3   2     2.301106190566   122.52865603   182.83004440
 F      1   2   3     2.534876901407   108.36338179   308.89954065

------------------------------------------------------------------------------
                   ___                                                        
                  /   \      - P O W E R E D   B Y -                         
                 /     \                                                     
                 |  |  |   _    _      __       _____    __    __             
                 |  |  |  | |  | |    /  \     |  _  \  |  |  /  |          
                  \  \/   | |  | |   /    \    | | | |  |  | /  /          
                 / \  \   | |__| |  /  /\  \   | |_| |  |  |/  /          
                |  |  |   |  __  | /  /__\  \  |    /   |      \           
                |  |  |   | |  | | |   __   |  |    \   |  |\   \          
                \     /   | |  | | |  |  |  |  | |\  \  |  | \   \       
                 \___/    |_|  |_| |__|  |__|  |_| \__\ |__|  \__/        
                                                                              
                      - O R C A' S   B I G   F R I E N D -                    
                                      &                                       
                       - I N T E G R A L  F E E D E R -                       
                                                                              
 v1 FN, 2020, v2 2021, v3 2022-2024                                           
------------------------------------------------------------------------------


----------------------
SHARK INTEGRAL PACKAGE
----------------------

Number of atoms                             ...     10
Number of basis functions                   ...    276
Number of shells                            ...    100
Maximum angular momentum                    ...      3
Integral batch strategy                     ... SHARK/LIBINT Hybrid
RI-J (if used) integral strategy            ... SPLIT-RIJ (Revised 2003 algorithm where possible)
Printlevel                                  ...      1
Contraction scheme used                     ... SEGMENTED contraction
Prescreening option                         ... SCHWARTZ
   Thresh                                   ... 2.500e-11
   Tcut                                     ... 2.500e-12
   Tpresel                                  ... 2.500e-12 
Coulomb Range Separation                    ... NOT USED
Exchange Range Separation                   ... NOT USED
Multipole approximations                    ... NOT USED
Finite Nucleus Model                        ... NOT USED
CABS basis                                  ... NOT available
Auxiliary Coulomb fitting basis             ... AVAILABLE
   # of basis functions in Aux-J            ...    414
   # of shells in Aux-J                     ...    130
   Maximum angular momentum in Aux-J        ...      4
Auxiliary J/K fitting basis                 ... NOT available
Auxiliary Correlation fitting basis         ... NOT available
Auxiliary 'external' fitting basis          ... NOT available

Checking pre-screening integrals            ... done (  0.0 sec) Dimension = 100
   => SHARK Basis and OBASIS are compatible. Storing Pre-screening
Shell pair information
Shell pair cut-off parameter TPreSel        ...   2.5e-12
Total number of shell pairs                 ...      5050
Shell pairs after pre-screening             ...      4461
Total number of primitive shell pairs       ...     15758
Primitive shell pairs kept                  ...     10312
          la=0 lb=0:    899 shell pairs
          la=1 lb=0:   1171 shell pairs
          la=1 lb=1:    391 shell pairs
          la=2 lb=0:    702 shell pairs
          la=2 lb=1:    465 shell pairs
          la=2 lb=2:    150 shell pairs
          la=3 lb=0:    313 shell pairs
          la=3 lb=1:    211 shell pairs
          la=3 lb=2:    127 shell pairs
          la=3 lb=3:     32 shell pairs

Checking whether 4 symmetric matrices of dimension 276 fit in memory
:Max Core in MB      =  28672.00
 MB in use           =      9.65
 MB left             =  28662.35
 MB needed           =      1.17
 Data fit in memory  = YES
Calculating RI/J V-Matrix + Cholesky decomp.... done (  0.0 sec)
Calculating Nuclear repulsion               ... done (  0.0 sec) ENN=    395.841040772450 Eh

Diagonalization of the overlap matrix:
Smallest eigenvalue                        ... 3.289e-04
Time for diagonalization                   ...    0.009 sec
Threshold for overlap eigenvalues          ... 1.000e-07
Number of eigenvalues below threshold      ... 0
Time for construction of square roots      ...    0.005 sec
Total time needed                          ...    0.015 sec

-------------------
DFT GRID GENERATION
-------------------

General Integration Accuracy     IntAcc      ... 4.388
Radial Grid Type                 RadialGrid  ... OptM3 with GC (2021)
Angular Grid (max. ang.)         AngularGrid ... 4 (Lebedev-302)
Angular grid pruning method      GridPruning ... 4 (adaptive)
Weight generation scheme         WeightScheme... mBecke (2022)
Basis function cutoff            BFCut       ... 1.0000e-11
Integration weight cutoff        WCut        ... 1.0000e-14
Partially contracted basis set               ... off
Rotationally invariant grid construction     ... off
Angular grids for H and He will be reduced by one unit

[...]
     28      -0.191359  -0.358459  -0.013313  -0.002125  -0.082809  -0.030736
     29       0.252264  -0.103500  -0.097042   0.075971  -0.141854  -0.033750
                 18         19         20         21         22         23    
      0      -0.071719   0.026373  -0.029801   0.462518   0.372630  -0.026019
      1      -0.004355   0.034140  -0.127533  -0.452393   0.144604  -0.007202
      2       0.020949  -0.018973  -0.030539  -0.273914   0.413893  -0.055315
      3       0.018597   0.163027  -0.166457   0.114071  -0.025210   0.027085
      4       0.310537  -0.090443  -0.026108   0.063881   0.032745   0.030444
      5      -0.356530  -0.028772  -0.097553   0.012743  -0.093216   0.039620
      6       0.072755  -0.129975   0.123023  -0.082222   0.015022  -0.034754
      7       0.058743  -0.039527   0.041204  -0.027506   0.034219   0.052123
      8       0.003665  -0.044656   0.063103  -0.045891   0.021628   0.042249
      9       0.279669   0.462005  -0.253243  -0.465907  -0.578848  -0.040639
     10       0.390756   0.625124   0.667434  -0.367101   0.113532  -0.180045
     11      -0.460557   0.517303   0.620867  -0.069962   0.296452  -0.131993
     12      -0.080811  -0.018260  -0.012445  -0.148638   0.000408  -0.000931
     13       0.181753   0.017187   0.022332   0.178625  -0.039295   0.004830
     14       0.108005   0.024814   0.016227   0.181032  -0.056166   0.007361
     15       0.033303  -0.030618  -0.013528   0.028998  -0.023089  -0.008683
     16      -0.120966   0.118084   0.030325  -0.047749  -0.028568   0.026316
     17       0.082376  -0.030512  -0.016727   0.023353   0.074267   0.034572
     18      -0.105766   0.214194   0.062268  -0.081115   0.369436   0.939962
     19      -0.079147  -0.047401   0.033287  -0.035273   0.026539   0.053637
     20       0.137219   0.010296   0.069458  -0.036243   0.083229   0.175017
     21       0.175150   0.012680  -0.009604  -0.062451  -0.057087   0.006587
     22      -0.279407  -0.017572   0.025720   0.090415   0.053050  -0.008173
     23       0.228031   0.015094  -0.014305  -0.036151  -0.076815   0.010408
     24      -0.013861   0.013086   0.012553  -0.015992   0.012315  -0.032469
     25      -0.015978  -0.013884  -0.096506   0.053404  -0.058679  -0.083193
     26      -0.014817   0.041127  -0.029398   0.055336  -0.053914  -0.091295
     27      -0.140632  -0.032248   0.050640  -0.060043  -0.160282   0.008055
     28      -0.071993  -0.024348   0.039305   0.006315  -0.094652   0.004883
     29      -0.149407  -0.015454   0.024623   0.003155  -0.109668   0.009318
                 24         25         26         27         28         29    
      0      -0.106762   0.153321   0.004808  -0.002332   0.001130   0.000527
      1      -0.311870   0.041185  -0.006553   0.003443   0.000546   0.000307
      2       0.280775  -0.044966  -0.022503  -0.002582  -0.000619  -0.000540
      3       0.068128  -0.179179   0.192394   0.249397   0.033244  -0.000284
      4       0.072321  -0.051659   0.038921  -0.020860  -0.056790  -0.000135
      5      -0.064933   0.079060   0.049574  -0.004404   0.057167  -0.000328
      6      -0.024813   0.059229   0.149120   0.222705  -0.000077  -0.004582
      7       0.003673   0.012761  -0.032551   0.096203   0.000010   0.046415
      8      -0.005563   0.029397  -0.004718   0.128445   0.000515   0.040901
      9       0.755321   0.885564  -0.043833  -0.040362  -0.371220   0.000422
     10       0.100793   0.119765  -0.237855  -0.099028   0.648256  -0.003051
     11      -0.432516  -0.347946  -0.089841   0.140787  -0.659039   0.002126
     12       0.021819  -0.015348  -0.003339  -0.004294  -0.000091  -0.000144
     13       0.002156   0.007199   0.003989   0.001404   0.000038   0.000044
     14      -0.036551   0.011241   0.005017   0.005676   0.000118   0.000035
     15      -0.009343  -0.049984  -0.274490  -0.591042  -0.002403   0.000811
     16       0.012792   0.024276   0.272813  -0.288226  -0.000808   0.003288
     17       0.005680  -0.030640   0.209802  -0.370259  -0.001650   0.003236
     18       0.097817   0.015314  -0.774052   0.449161   0.001269   0.084256
     19      -0.009474   0.030855   0.002939   0.064950  -0.001777  -0.746568
     20       0.018531   0.006167  -0.121862   0.135007  -0.003271  -0.656998
     21      -0.032080  -0.007442   0.002046   0.000684   0.000041  -0.000015
     22       0.086943  -0.010830  -0.001281  -0.000139   0.000554  -0.000030
     23      -0.073637   0.010379   0.003166   0.000333  -0.000520   0.000122
     24      -0.026950  -0.004003  -0.023286   0.020757  -0.000397  -0.001207
     25       0.008076  -0.015314  -0.175558   0.139106   0.001502  -0.001605
     26      -0.005801  -0.024916  -0.170591   0.130923   0.000517  -0.001608
     27       0.038919  -0.023568  -0.012419  -0.005640  -0.000135  -0.000126
     28       0.039522  -0.010937  -0.007930  -0.004385  -0.000096  -0.000165
     29       0.001672  -0.009442   0.000929  -0.000564  -0.000035   0.000002


-----------
IR SPECTRUM
-----------

 Mode   freq       eps      Int      T**2         TX        TY        TZ
       cm**-1   L/(mol*cm) km/mol    a.u.
----------------------------------------------------------------------------
  6:     55.38   0.001133    5.73  0.006385  ( 0.046101 -0.021591  0.061593)
  7:    131.01   0.001645    8.31  0.003919  (-0.060213 -0.013622 -0.010386)
  8:    187.98   0.002334   11.79  0.003874  (-0.003581  0.048081 -0.039368)
  9:    309.58   0.002993   15.13  0.003017  ( 0.054470 -0.002093  0.006770)
 10:    353.85   0.000945    4.77  0.000833  ( 0.022042  0.013281  0.013068)
 11:    437.01   0.007634   38.58  0.005452  ( 0.043926  0.022834 -0.054778)
 12:    493.30   0.005603   28.32  0.003545  (-0.015824  0.048623 -0.030494)
 13:    512.60   0.000893    4.51  0.000544  (-0.022898  0.004331 -0.000691)
 14:    601.38   0.020573  103.97  0.010675  (-0.060174 -0.051698  0.066196)
 15:    625.24   0.015864   80.17  0.007918  ( 0.078669 -0.039345  0.013446)
 16:    677.82   0.002604   13.16  0.001199  ( 0.011364  0.012452 -0.030242)
 17:    700.86   0.020539  103.80  0.009145  (-0.009924 -0.063618  0.070706)
 18:    822.06   0.002647   13.38  0.001005  (-0.011976  0.015458 -0.024950)
 19:    970.83   0.036017  182.01  0.011577  ( 0.087222  0.057547  0.025649)
 20:   1059.52   0.010869   54.93  0.003201  (-0.046971 -0.030219 -0.009047)
 21:   1092.84   0.087539  442.38  0.024997  ( 0.104367 -0.107611 -0.050240)
 22:   1103.73   0.093403  472.02  0.026408  ( 0.103282  0.045658  0.116861)
 23:   1126.49   0.027533  139.14  0.007627  ( 0.078233  0.030934  0.023451)
 24:   1198.42   0.039555  199.89  0.010300  (-0.016822 -0.073918  0.067475)
 25:   1317.45   0.008750   44.22  0.002073  ( 0.039644  0.012887 -0.018301)
 26:   1402.17   0.025815  130.46  0.005745  (-0.071156  0.022174  0.013802)
 27:   1821.08   0.104697  529.09  0.017941  (-0.100641 -0.059915 -0.064981)
 28:   3136.56   0.011243   56.82  0.001119  (-0.014130  0.019104 -0.023537)
 29:   3493.79   0.109710  554.43  0.009799  (-0.027531 -0.069451 -0.064945)

* The epsilon (eps) is given for a Dirac delta lineshape.
** The dipole moment derivative (T) already includes vibrational overlap.

The first frequency considered to be a vibration is 6
The total number of vibrations considered is 24


--------------------------
THERMOCHEMISTRY AT 298.15K
--------------------------

Temperature         ...   298.15 K
Pressure            ...     1.00 atm
Total Mass          ...   127.04 AMU
Quasi RRHO          ...     True
Cut-Off Frequency   ...     1.00 cm^-1

Throughout the following assumptions are being made:
  (1) The electronic state is orbitally nondegenerate
  (2) There are no thermally accessible electronically excited states
  (3) Hindered rotations indicated by low frequency modes are not
      treated as such but are treated as vibrations and this may
      cause some error
  (4) All equations used are the standard statistical mechanics
      equations for an ideal gas
  (5) All vibrations are strictly harmonic

freq.      55.38  E(vib)   ...       0.52 
freq.     131.01  E(vib)   ...       0.42 
freq.     187.98  E(vib)   ...       0.36 
freq.     309.58  E(vib)   ...       0.26 
freq.     353.85  E(vib)   ...       0.22 
freq.     437.01  E(vib)   ...       0.17 
freq.     493.30  E(vib)   ...       0.14 
freq.     512.60  E(vib)   ...       0.13 
freq.     601.38  E(vib)   ...       0.10 
freq.     625.24  E(vib)   ...       0.09 
freq.     677.82  E(vib)   ...       0.08 
freq.     700.86  E(vib)   ...       0.07 
freq.     822.06  E(vib)   ...       0.05 
freq.     970.83  E(vib)   ...       0.03 
freq.    1059.52  E(vib)   ...       0.02 
freq.    1092.84  E(vib)   ...       0.02 
freq.    1103.73  E(vib)   ...       0.02 
freq.    1126.49  E(vib)   ...       0.01 
freq.    1198.42  E(vib)   ...       0.01 
freq.    1317.45  E(vib)   ...       0.01 
freq.    1402.17  E(vib)   ...       0.00 
freq.    1821.08  E(vib)   ...       0.00 
freq.    3136.56  E(vib)   ...       0.00 
freq.    3493.79  E(vib)   ...       0.00 

------------
INNER ENERGY
------------

The inner energy is: U= E(el) + E(ZPE) + E(vib) + E(rot) + E(trans)
    E(el)   - is the total energy from the electronic structure calculation
              = E(kin-el) + E(nuc-el) + E(el-el) + E(nuc-nuc)
    E(ZPE)  - the the zero temperature vibrational energy from the frequency calculation
    E(vib)  - the the finite temperature correction to E(ZPE) due to population
              of excited vibrational states
    E(rot)  - is the rotational thermal energy
    E(trans)- is the translational thermal energy

Summary of contributions to the inner energy U:
Electronic energy                ...   -564.93866484 Eh
Zero point energy                ...      0.05383527 Eh      33.78 kcal/mol
Thermal vibrational correction   ...      0.00435645 Eh       2.73 kcal/mol
Thermal rotational correction    ...      0.00141627 Eh       0.89 kcal/mol
Thermal translational correction ...      0.00141627 Eh       0.89 kcal/mol
-----------------------------------------------------------------------
Total thermal energy                   -564.87764057 Eh


Summary of corrections to the electronic energy:
(perhaps to be used in another calculation)
Total thermal correction                  0.00718899 Eh       4.51 kcal/mol
Non-thermal (ZPE) correction              0.05383527 Eh      33.78 kcal/mol
-----------------------------------------------------------------------
Total correction                          0.06102427 Eh      38.29 kcal/mol


--------
ENTHALPY
--------

The enthalpy is H = U + kB*T
                kB is Boltzmann's constant
Total thermal energy              ...   -564.87764057 Eh 
Thermal Enthalpy correction       ...      0.00094421 Eh       0.59 kcal/mol
-----------------------------------------------------------------------
Total Enthalpy                    ...   -564.87669636 Eh


Note: Only C1 symmetry has been detected, increase convergence thresholds 
      if your molecule has a higher symmetry. Symmetry factor of 1.0 is   
      used for the rotational entropy correction. 
 

Note: Rotational entropy computed according to Herzberg 
Infrared and Raman Spectra, Chapter V,1, Van Nostrand Reinhold, 1945 
Point Group:  C1, Symmetry Number:   1  
Rotational constants in cm-1:     0.130426     0.047949     0.044071 

Vibrational entropy computed according to the QRRHO of S. Grimme
Chem.Eur.J. 2012 18 9955 using a reference frequency of 100.0 cm-1


-------
ENTROPY
-------

The entropy contributions are T*S = T*(S(el)+S(vib)+S(rot)+S(trans))
     S(el)   - electronic entropy
     S(vib)  - vibrational entropy
     S(rot)  - rotational entropy
     S(trans)- translational entropy
The entropies will be listed as multiplied by the temperature to get
units of energy

Electronic entropy                ...      0.00000000 Eh      0.00 kcal/mol
Vibrational entropy               ...      0.00733074 Eh      4.60 kcal/mol
Rotational entropy                ...      0.01338031 Eh      8.40 kcal/mol
Translational entropy             ...      0.01921021 Eh     12.05 kcal/mol
-----------------------------------------------------------------------
Final entropy term                ...      0.03992127 Eh     25.05 kcal/mol

In case the symmetry of your molecule has not been determined correctly
or in case you have a reason to use a different symmetry number we print 
out the resulting rotational entropy values for sn=1,12:

 non-linear molecules -----------------------------------
|  sn= 1 | S(rot)=       0.01338031 Eh      8.40 kcal/mol|
|  sn= 2 | S(rot)=       0.01272586 Eh      7.99 kcal/mol|
|  sn= 3 | S(rot)=       0.01234302 Eh      7.75 kcal/mol|
|  sn= 4 | S(rot)=       0.01207140 Eh      7.57 kcal/mol|
|  sn= 5 | S(rot)=       0.01186071 Eh      7.44 kcal/mol|
|  sn= 6 | S(rot)=       0.01168857 Eh      7.33 kcal/mol|
|  sn= 7 | S(rot)=       0.01154302 Eh      7.24 kcal/mol|
|  sn= 8 | S(rot)=       0.01141694 Eh      7.16 kcal/mol|
|  sn= 9 | S(rot)=       0.01130573 Eh      7.09 kcal/mol|
|  sn=10 | S(rot)=       0.01120625 Eh      7.03 kcal/mol|
|  sn=11 | S(rot)=       0.01111626 Eh      6.98 kcal/mol|
|  sn=12 | S(rot)=       0.01103411 Eh      6.92 kcal/mol|
 linear molecules ---------------------------------------
|  Dinfh | S(rot)=       0.00827350 Eh      5.19 kcal/mol|
|  Cinfv | S(rot)=       0.00892795 Eh      5.60 kcal/mol|
 --------------------------------------------------------


-------------------
GIBBS FREE ENERGY
-------------------

The Gibbs free energy is G = H - T*S

Total enthalpy                    ...   -564.87669636 Eh 
Total entropy correction          ...     -0.03992127 Eh    -25.05 kcal/mol
-----------------------------------------------------------------------
Final Gibbs free energy         ...   -564.91661763 Eh

For completeness - the Gibbs free energy minus the electronic energy
G-E(el)                           ...      0.02204721 Eh     13.83 kcal/mol


Maximum memory used throughout the entire PROP-calculation: 51.5 MB

--------------------------------
SUGGESTED CITATIONS FOR THIS RUN
--------------------------------

Below you find a list of papers that are relevant to this ORCA run
We neither can nor want to force you to cite these papers, but we appreciate if you do
You receive ORCA, which is the product of decades of hard work by many enthusiastic individuals, for free
The only thing we kindly ask in return is that you cite our papers,
We deeply appreciate it, if you show your appreciation for ORCA by not just citing the generic ORCA reference.

Please note that relegating all ORCA citations to the supporting information does *not* help us.
SI sections are not indexed - citations you put there will not count into any citation statistics
But we need these citations in order to attract the funding resources that allow us to do what we are doing

Therefore, if you are a happy ORCA user, please consider citing a few of the papers listed below in the main body of your paper

In addition to the list printed below, the program has created the file 3_3_3_2_tetrafluoropropanoic_acid_defluorinated.bibtex that contains the list in bibtex format
You can import this file easily into all common literature databanks and citation aid programs


List of essential papers. We consider these as the minimum necessary citations

  1. Neese, F.
     Software update: the ORCA program system, version 6.0
     WIRES Comput. Molec. Sci. 2025 15(1), e70019
     doi.org/10.1002/wcms.7019

List of papers to cite with high priority. The work reported in these papers was absolutely
necessary for this run to complete.
Our perspective: the developers of density functionals and basis sets usually get cited in chemistry papers
Good! But without the algorithms to do something with them, the functionals or basis sets would not do anything.
Hence, in our opinion, the algorithm design and method developments papers are equally worthy of getting cited

  1. Neese, F.
     An improvement of the resolution of the identity approximation for the formation of the Coulomb matrix
     J. Comp. Chem. 2003 24(14), 1740-1747
     doi.org/10.1002/jcc.10318
  2. Bykov, D.; Petrenko, T.; Izsak, R.; Kossmann, S.; Becker, U.; Valeev, E.; Neese, F.
     Efficient implementation of the analytic second derivatives of Hartree-Fock and hybrid DFT energies: a detailed analysis of different approximations
     Molec. Phys. 2015 113 , 1961-1977
     doi.org/10.1080/00268976.2015.1025114
  3. Caldeweyher, E.; Bannwarth, C.; Grimme, S.
     Extension of the D3 dispersion coefficient model
     J. Chem. Phys. 2017 147 , 034112
     doi.org/10.1063/1.4993215
  4. Caldeweyher, E.; Ehlert, S.; Hansen, A.; Neugebauer, H.; Spicher, S.; Bannwarth, C.; Grimme, S.
     A generally applicable atomic-charge dependent London dispersion correction
     J. Chem. Phys. 2019 150 , 154122
     doi.org/10.1063/1.5090222
  5. Garcia-Rates, M.; Neese, F.
     Efficient implementation of the analytical second derivatives of hartree-fock and hybrid DFT energies within the framework of the conductor-like polarizable continuum model
     J. Comput. Chem. 2019 40 , 1816-1828
     doi.org/10.1002/jcc.25833
  6. Caldeweyher, E.; Mewes, J.; Ehlert, S.; Grimme, S.
     Extension and evaluation of the D4 London-dispersion model for periodic systems
     Phys. Chem. Chem. Phys. 2020 22(16), 8499-8512
     doi.org/10.1039/D0CP00502A
  7. Garcia-Rates, M.; Neese, F.
     Effect of the Solute Cavity on the Solvation Energy and its Derivatives within the Framework of the Gaussian Charge Scheme
     J. Comput. Chem. 2020 41 , 922-939
     doi.org/10.1002/jcc.26139
  8. Neese, F.
     The SHARK Integral Generation and Digestion System
     J. Comp. Chem. 2022 44(3), 381
     doi.org/10.1002/jcc.26942
  9. Wittmann, L.; Gordiy, I.; Friede, M.; Helmich-Paris, B.; Grimme, S.; Hansen, A.; Bursch, M.
     Extension of the D3 and D4 London Dispersion Corrections to the full Actinides Series
     Phys. Chem. Chem. Phys. 2024 26(32), 21379-21394
     doi.org/10.1039/D4CP01514B

List of suggested additional citations. These are papers that are important in the 'surrounding' of 
of this run, or papers that preceded the highly important papers. If you like your results we are grateful for a citation.

  1. Neese, F.
     The ORCA program system
     WIRES Comput. Molec. Sci. 2012 2(1), 73-78
     doi.org/10.1002/wcms.81
  2. Neese, F.
     Software update: the ORCA program system, version 4.0
     WIRES Comput. Molec. Sci. 2018 8(1), 1-6
     doi.org/10.1002/wcms.1327
  3. Neese, F.; Wennmohs, F.; Becker, U.; Riplinger, C.
     The ORCA quantum chemistry program package
     J. Chem. Phys. 2020 152(22), 224108
     doi.org/10.1063/5.0004608
  4. Neese, F.
     Software update: The ORCA program system—Version 5.0
     WIRES Comput. Molec. Sci. 2022 12(1), e1606
     doi.org/10.1002/wcms.1606

List of optional additional citations

  1. Neese, F.
     Approximate second-order SCF convergence for spin unrestricted wavefunctions
     Chem. Phys. Lett. 2000 325(1-3), 93-98
     doi.org/10.1016/s0009-2614(00)00662-x

Timings for individual modules:

Sum of individual times          ...      839.151 sec (=  13.986 min)
Startup calculation              ...       13.046 sec (=   0.217 min)   1.6 %
SCF iterations                   ...      399.187 sec (=   6.653 min)  47.6 %
Property integrals               ...      118.370 sec (=   1.973 min)  14.1 %
SCF Response                     ...       68.903 sec (=   1.148 min)   8.2 %
Property calculations            ...       63.793 sec (=   1.063 min)   7.6 %
SCF Gradient evaluation          ...      175.789 sec (=   2.930 min)  20.9 %
Geometry relaxation              ...        0.062 sec (=   0.001 min)   0.0 %
                             ****ORCA TERMINATED NORMALLY****
TOTAL RUN TIME: 0 days 0 hours 14 minutes 1 seconds 80 msec
