
                                 *****************
                                 * O   R   C   A *
                                 *****************

                                            #,                                       
                                            ###                                      
                                            ####                                     
                                            #####                                    
                                            ######                                   
                                           ########,                                 
                                     ,,################,,,,,                         
                               ,,#################################,,                 
                          ,,##########################################,,             
                       ,#########################################, ''#####,          
                    ,#############################################,,   '####,        
                  ,##################################################,,,,####,       
                ,###########''''           ''''###############################       
              ,#####''   ,,,,##########,,,,          '''####'''          '####       
            ,##' ,,,,###########################,,,                        '##       
           ' ,,###''''                  '''############,,,                           
         ,,##''                                '''############,,,,        ,,,,,,###''
      ,#''                                            '''#######################'''  
     '                                                          ''''####''''         
             ,#######,   #######,   ,#######,      ##                                
            ,#'     '#,  ##    ##  ,#'     '#,    #''#        ,####,    ,#,          
            ##       ##  ##   ,#'  ##            #'  '#       #'       ,# #          
            ##       ##  #######   ##           ,######,      #####,      #          
            '#,     ,#'  ##    ##  '#,     ,#' ,#      #,     #,   #      #          
             '#######'   ##     ##  '#######'  #'      '#     '####' #    #          



                #########################################################
                #                        -***-                          #
                #          Department of theory and spectroscopy        #
                #                                                       #
                #                      Frank Neese                      #
                #                                                       #
                #     Directorship, Architecture, Infrastructure        #
                #                    SHARK, DRIVERS                     #
                #        Core code/Algorithms in most modules           #
                #                                                       #
                #        Max Planck Institute fuer Kohlenforschung      #
                #                Kaiser Wilhelm Platz 1                 #
                #                 D-45470 Muelheim/Ruhr                 #
                #                      Germany                          #
                #                                                       #
                #                  All rights reserved                  #
                #                        -***-                          #
                #########################################################


                         Program Version 6.1.0  -  RELEASE   -
                                (GIT: $679e74b$)
                          ($2025-06-10 18:02:51 +0200$)


 With contributions from (in alphabetic order):
[Max-Planck-Institut fuer Kohlenforschung]                               
  Daniel Aravena         : Magnetic Suceptibility                        
  Michael Atanasov       : Ab Initio Ligand Field Theory (pilot matlab implementation)
  Alexander A. Auer      : GIAO ZORA, VPT2 properties, NMR spectrum      
  Ute Becker             : All parallelization in ORCA, NUMFREQ, NUMCALC 
  Giovanni Bistoni       : ED, misc. LED, open-shell LED, HFLD           
  Dmytro Bykov           : pre 5.0 version of the SCF Hessian            
  Marcos Casanova-Páez   : Triplet and SCS-CIS(D). UHF-(DLPNO)-IP/EA/STEOM-CCSD. UHF-CVS-IP/STEOM-CCSD   
  Vijay G. Chilkuri      : MRCI spin determinant printing, contributions to CSF-ICE 
  Pauline Colinet        : FMM embedding                                 
  Dipayan Datta          : RHF DLPNO-CCSD density                        
  Achintya Kumar Dutta   : EOM-CC, STEOM-CC                              
  Nicolas Foglia         : Exact transition moments, OPA infrastructure, MCD improvements    
  Dmitry Ganyushin       : Spin-Orbit,Spin-Spin,Magnetic field MRCI      
  Miquel Garcia-Rates    : C-PCM and meta-GGA Hessian, CCSD/C-PCM, Gaussian charge scheme 
  Tiago L. C. Gouveia    : GS-ROHF, GS-ROCIS                             
  Yang Guo               : DLPNO-NEVPT2, F12-NEVPT2, CIM, IAO-localization        
  Andreas Hansen         : Spin unrestricted coupled pair/coupled cluster methods 
  Ingolf Harden          : AUTO-CI MPn and infrastructure                
  Benjamin Helmich-Paris : MC-RPA, TRAH-(SCF,CASSCF), AVAS, COSX integrals, SCF dyn. polar., MC-PDFT, srDFT 
  Lee Huntington         : MR-EOM, pCC                                   
  Robert Izsak           : Overlap fitted RIJCOSX, COSX-SCS-MP3, EOM     
  Riya Kayal             : Wick's Theorem for AUTO-CI, AUTO-CI UHF-CCSDT 
  Emily Kempfer          : AUTO-CI RHF CISDT and CCSDT, approximate NEVPT4
  Christian Kollmar      : KDIIS, OOCD, Brueckner-CCSD(T), CCSD density, CASPT2, CASPT2-K, improved NEVPT2 
  Axel Koslowski         : Symmetry handling                             
  Simone Kossmann        : meta-GGA functionals, TD-DFT gradient, OOMP2, (MP2 Hessian; deprecated post 5.0) 
  Lucas Lang             : DCDCAS, Hyperfine gauge corrections, ICE-SOC+SSC
  Marvin Lechner         : AUTO-CI (C++ implementation), FIC-MRCC        
  Spencer Leger          : CASSCF response                               
  Dagmar Lenk            : GEPOL surface, SMD, ORCA-2-JSON               
  Dimitrios Liakos       : Extrapolation schemes; Compound Job, Property file
  Dimitrios Manganas     : Further ROCIS development; embedding schemes. LFT, Crystal Embedding 
  Dimitrios Pantazis     : SARC Basis sets                               
  Anastasios Papadopoulos: AUTO-CI, single reference methods and gradients 
  Taras Petrenko         : pre 6.0 DFT Hessian and TD-DFT gradient,  ECA, NRVS 
  Petra Pikulova         : Analytic Raman intensities                    
  Peter Pinski           : DLPNO-MP2, DLPNO-MP2 Gradient                 
  Shashank Vittal Rao    : ES-AILFT, MagRelax                            
  Christoph Reimann      : Effective Core Potentials                     
  Marius Retegan         : Local ZFS, SOC                                
  Christoph Riplinger    : Optimizer, TS searches, QM/MM, DLPNO-CCSD(T), (RO)-DLPNO pert. Triples 
  Michael Roemelt        : Original ROCIS implementation, recursive CI coupling coefficients
  Masaaki Saitow         : Open-shell DLPNO-CCSD energy and density      
  Barbara Sandhoefer     : DKH picture change effects                    
  Yorick L. A. Schmerwitz: GMF and freeze-and-release deltaSCF, NEB S-IDPP initial path                    
  Kantharuban Sivalingam : CASSCF convergence/infrastructure, NEVPT2, NEVPT3, NEVPT4(SD), FIC-MRCI and CEPA variants
  Bernardo de Souza      : ESD, SOC TD-DFT                               
  Georgi L. Stoychev     : AutoAux, RI-MP2 NMR, DLPNO-MP2 response, X2C  
  Van Anh Tran           : RI-MP2 g-tensors                              
  Willem Van den Heuvel  : Paramagnetic NMR                              
  Zikuan Wang            : NOTCH, Electric field optimization            
  Frank Wennmohs         : Technical directorship and infrastructure     
  Hang Xu                : AUTO-CI-Response properties                   
                                                                         
[FACCTs GmbH]                                                            
  Markus Bursch, Nicolas Foglia, Miquel Garcia-Rates, Ingolf Harden, Hagen Neugebauer, Anastasios Papadopoulos, 
  Christoph Riplinger, Bernardo de Souza, Georgi L. Stoychev                                                    
                                                                 
  APM, various basis sets, CI-OPT, improved COSX, DLPNO-Multilevel,           
  DOCKER, DRACO, updates on ESD, Fragmentator, GOAT, IRC, LR-CPCM, L-BFGS, MBIS, meta-GGA TD-DFT gradient, ML-optimized integration grids, 
  MM, NACMEs, nearIR, NEB, NEB-TS, NL-DFT gradient (VV10), 2- and 3-layer-ONIOM, interface openCOSMO-RS, QMMM,   
  Crystal-QMMM, RESP, rigid body optimization, SF, symmetry and pop. for TD-DFT, various functionals, SOLVATOR                                   
                                                                         
[Other institutions]                                                     
  V. Asgeirsson          : NEB                                           
  Christoph Bannwarth    : sTDA-DFT, sTD-DFT, PBEh-3c, B97-3c, D3        
  Giovanni Bistoni       : ETS/NOCV, ADLD/ADEX, COVALED                  
  Martin Brehm           : Molecular dynamics                            
  Ronald Cardenas        : ETS/NOCV                                      
  Martina Colucci        : COVALED                                       
  Sebastian Ehlert       : rSCAN, r2SCAN, r2SCAN-3c, D4, dhf basis sets  
  Marvin Friede          : D4 for Fr, Ra, Ac-Lr                          
  Lars Goerigk           : TD-DFT with DH, B97 family of functionals     
  Stefan Grimme          : VdW corrections, initial TS optimization, DFT functionals, gCP, sTDA/sTD-DF 
  Waldemar Hujo          : DFT-NL                                        
  H. Jonsson             : NEB                                           
  Holger Kruse           : gCP                                           
  Marcel Mueller         : wB97X-3c, vDZP basis set                      
  Hagen Neugebauer       : wr2SCAN, Native XTB                           
  Gianluca Regni         : ADLD/ADEX                                     
  Tobias Risthaus        : pre 6.0 range-separated hybrid DFT and stability analysis
  Lukas Wittmann         : regularized MP2, r2SCAN double-hybrids, wr2SCAN        
                                                                         
We gratefully acknowledge several colleagues who have allowed us to      
interface, adapt or use parts of their codes:                            
  Ed Valeev, F. Pavosevic, A. Kumar             : LibInt (2-el integral package), F12 methods 
  Garnet Chan, S. Sharma, J. Yang, R. Olivares  : DMRG                   
  Ulf Ekstrom                                   : XCFun DFT Library      
  Mihaly Kallay                                 : mrcc  (arbitrary order and MRCC methods)
  Frank Weinhold                                : gennbo (NPA and NBO analysis)           
  Simon Mueller                                 : openCOSMO-RS                            
  Christopher J. Cramer and Donald G. Truhlar   : smd solvation model                     
  S Lehtola, MJT Oliveira, MAL Marques          : LibXC Library                           
  Liviu Ungur et al                             : ANISO software                          


 Your calculation uses the libint2 library for the computation of 2-el integrals
 For citations please refer to: http://libint.valeyev.net

 Your ORCA version has been built with support for libXC version: 7.0.0
 For citations please refer to: https://libxc.gitlab.io

 This ORCA versions uses:
   CBLAS   interface :  Fast vector & matrix operations
   LAPACKE interface :  Fast linear algebra routines
   SCALAPACK package :  Parallel linear algebra routines
   Shared memory     :  Shared parallel matrices
   BLAS/LAPACK       :  OpenBLAS 0.3.29  USE64BITINT DYNAMIC_ARCH NO_AFFINITY Zen SINGLE_THREADED
        Core in use  :  Zen
   Copyright (c) 2011-2014, The OpenBLAS Project


  ***********************************
  * Starting time: Wed Nov 26 22:46:22 2025
  * Host name:     twstudio
  * Process ID:    90268
  * Working dir.:  /mnt/sda3/data1/Studium-PC/PFAS-Breaker/C-F-Bonds_Gibbs/IonicFluorination
  ***********************************

Your calculation utilizes the atom-pairwise dispersion correction
based on EEQ partial charges (D4)


Your calculation utilizes the SMD solvation module
Please cite in your paper:
Marenich, A. V.; Cramer, C. J.; Truhlar, D. G. J. Phys. Chem. B 2009, 113, 6378 

Warning: RI is on but no J-basis has been assigned. Assigning Def2/J (nothing to worry about!)
================================================================================

----- Orbital basis set information -----
Your calculation utilizes the basis: def2-TZVPP
   F. Weigend and R. Ahlrichs, Phys. Chem. Chem. Phys. 7, 3297 (2005).

----- AuxJ basis set information -----
Your calculation utilizes the auxiliary basis: def2/J
   H-Rn: F. Weigend, Phys. Chem. Chem. Phys. 8, 1057 (2006).
   Fr-Lr: K. Eichkorn, F. Weigend, O. Treutler, R. Ahlrichs; Theor. Chem. Acc. 97, 119 (1997).

================================================================================
                                        WARNINGS
                       Please study these warnings very carefully!
================================================================================


WARNING: Geometry Optimization
  ===> : Switching off AutoStart
         For restart on a previous wavefunction, please use MOREAD

================================================================================
                                       INPUT FILE
================================================================================
NAME = 3_fluoropropanoic_acid_defluorinated.inp
|  1> !PBE D4 def2-TZVPP OPT FREQ SMD(WATER)
|  2> 
|  3> %scf
|  4> MaxCore 28672
|  5> end
|  6> 
|  7> * xyz 1 1
|  8> C     -6.29068    0.56916    0.34028
|  9> C     -5.09327    1.51874    0.13589
| 10> O     -2.94695    1.66746   -0.83452
| 11> H     -5.41155    2.36050   -0.48399
| 12> H     -6.68042    0.22894   -0.62176
| 13> C     -3.90198    0.83562   -0.51242
| 14> H     -3.24087    2.56502   -0.60424
| 15> H     -4.78858    1.92652    1.10262
| 16> O     -3.79237   -0.36392   -0.65828
| 17> H     -5.99698   -0.30496    0.92744
| 18> **                         ****END OF INPUT****
================================================================================

                       *****************************
                       * Geometry Optimization Run *
                       *****************************

Geometry optimization settings:
Update method            Update   .... BFGS
Choice of coordinates    CoordSys .... (2022) Redundant Internals
Initial Hessian          InHess   .... Almloef's Model
Max. no of cycles        MaxIter  .... 50

Convergence Tolerances:
Energy Change            TolE     ....  5.0000e-06 Eh
Max. Gradient            TolMAXG  ....  3.0000e-04 Eh/bohr
RMS Gradient             TolRMSG  ....  1.0000e-04 Eh/bohr
Max. Displacement        TolMAXD  ....  4.0000e-03 bohr
RMS Displacement         TolRMSD  ....  2.0000e-03 bohr
Strict Convergence                .... False

------------------------------------------------------------------------------
                        ORCA OPTIMIZATION COORDINATE SETUP
------------------------------------------------------------------------------

The optimization will be done in redundant internal coordinates (2022)
Making redundant internal coordinates   ...  (2022 redundants) done
Evaluating the initial hessian          ...  (Almloef) done
Evaluating the coordinates              ...  done
Calculating the B-matrix                .... done
Calculating the G-matrix                .... done
The number of degrees of freedom        ....   34

    -----------------------------------------------------------------
                    Redundant Internal Coordinates


    -----------------------------------------------------------------
         Definition                    Initial Value    Approx d2E/dq
    -----------------------------------------------------------------
      1. B(C   1,C   0)                  1.5418         0.357675   
      2. B(H   3,C   1)                  1.0928         0.356474   
      3. B(H   4,C   0)                  1.0923         0.357041   
      4. B(C   5,O   2)                  1.3068         0.759587   
      5. B(C   5,C   1)                  1.5186         0.389559   
      6. B(H   6,O   2)                  0.9721         0.497300   
      7. B(H   7,C   1)                  1.0926         0.356729   
      8. B(O   8,C   5)                  1.2133         1.070855   
      9. B(H   9,C   0)                  1.0932         0.355882   
     10. A(H   4,C   0,H   9)          108.6539         0.289914   
     11. A(C   1,C   0,H   9)          110.7937         0.321393   
     12. A(C   1,C   0,H   4)          110.6199         0.321564   
     13. A(C   0,C   1,C   5)          112.8784         0.363252   
     14. A(C   0,C   1,H   3)          108.8695         0.321481   
     15. A(C   0,C   1,H   7)          109.2171         0.321518   
     16. A(C   5,C   1,H   7)          109.0789         0.326056   
     17. A(H   3,C   1,H   7)          107.1967         0.289949   
     18. A(H   3,C   1,C   5)          109.4405         0.326017   
     19. A(C   5,O   2,H   6)          107.9609         0.380384   
     20. A(O   2,C   5,O   8)          122.2523         0.491165   
     21. A(C   1,C   5,O   8)          124.5350         0.437621   
     22. A(C   1,C   5,O   2)          113.0901         0.411548   
     23. D(H   7,C   1,C   0,H   4)    174.1185         0.010000   
     24. D(C   5,C   1,C   0,H   9)     56.1989         0.010000   
     25. D(H   3,C   1,C   0,H   4)     57.3736         0.010000   
     26. D(C   5,C   1,C   0,H   4)    -64.3610         0.010000   
     27. D(H   3,C   1,C   0,H   9)    177.9335         0.010000   
     28. D(O   2,C   5,C   1,H   3)     50.8368         0.011292   
     29. D(O   8,C   5,O   2,H   6)   -178.0481         0.043942   
     30. D(O   2,C   5,C   1,C   0)    172.2487         0.011292   
     31. D(C   1,C   5,O   2,H   6)     -1.9033         0.043942   
     32. D(O   8,C   5,C   1,H   3)   -133.1212         0.011292   
     33. D(O   8,C   5,C   1,C   0)    -11.7093         0.011292   
     34. D(O   2,C   5,C   1,H   7)    -66.1526         0.011292   
    -----------------------------------------------------------------

Number of atoms                         .... 10
Number of degrees of freedom            .... 34


         *************************************************************
         *                GEOMETRY OPTIMIZATION CYCLE   1            *
         *************************************************************
---------------------------------
CARTESIAN COORDINATES (ANGSTROEM)
---------------------------------
  C     -6.290680    0.569160    0.340280
  C     -5.093270    1.518740    0.135890
  O     -2.946950    1.667460   -0.834520
  H     -5.411550    2.360500   -0.483990
  H     -6.680420    0.228940   -0.621760
  C     -3.901980    0.835620   -0.512420
  H     -3.240870    2.565020   -0.604240
  H     -4.788580    1.926520    1.102620
  O     -3.792370   -0.363920   -0.658280
  H     -5.996980   -0.304960    0.927440

----------------------------
CARTESIAN COORDINATES (A.U.)
----------------------------
  NO LB      ZA    FRAG     MASS         X           Y           Z
   0 C     6.0000    0    12.011  -11.887662    1.075557    0.643036
   1 C     6.0000    0    12.011   -9.624885    2.870003    0.256795
   2 O     8.0000    0    15.999   -5.568928    3.151043   -1.577014
   3 H     1.0000    0     1.008  -10.226347    4.460699   -0.914609
   4 H     1.0000    0     1.008  -12.624164    0.432634   -1.174956
   5 C     6.0000    0    12.011   -7.373674    1.579093   -0.968333
   6 H     1.0000    0     1.008   -6.124357    4.847185   -1.141848
   7 H     1.0000    0     1.008   -9.049105    3.640595    2.083650
   8 O     8.0000    0    15.999   -7.166541   -0.687709   -1.243969
   9 H     1.0000    0     1.008  -11.332650   -0.576291    1.752608

--------------------------------
INTERNAL COORDINATES (ANGSTROEM)
--------------------------------
 C      0   0   0     0.000000000000     0.00000000     0.00000000
 C      1   0   0     1.541839212305     0.00000000     0.00000000
 O      2   1   0     2.360191252611   143.08709685     0.00000000
 H      2   1   3     1.092754899509   108.86948801   115.16686074
 H      1   2   3     1.092322240733   110.61987426   302.20677504
 C      3   2   1     1.306823819993    36.29020717   348.05937607
 H      3   2   1     0.972127459956    71.68945613   166.15227294
 H      2   1   3     1.092560029197   109.21713389   231.91167876
 O      6   3   2     1.213336599341   122.25233591   183.85523817
 H      1   2   3     1.093207359104   110.79369688    62.76667749

---------------------------
INTERNAL COORDINATES (A.U.)
---------------------------
 C      0   0   0     0.000000000000     0.00000000     0.00000000
 C      1   0   0     2.913653853797     0.00000000     0.00000000
 O      2   1   0     4.460115091111   143.08709685     0.00000000
 H      2   1   3     2.065007491572   108.86948801   115.16686074
 H      1   2   3     2.064189884977   110.61987426   302.20677504
 C      3   2   1     2.469539125071    36.29020717   348.05937607
 H      3   2   1     1.837054666581    71.68945613   166.15227294
 H      2   1   3     2.064639240052   109.21713389   231.91167876
 O      6   3   2     2.292873881018   122.25233591   183.85523817
 H      1   2   3     2.065862516295   110.79369688    62.76667749

---------------------
BASIS SET INFORMATION
---------------------
There are 3 groups of distinct atoms

 Group   1 Type C   : 11s6p2d1f contracted to 5s3p2d1f pattern {62111/411/11/1}
 Group   2 Type O   : 11s6p2d1f contracted to 5s3p2d1f pattern {62111/411/11/1}
 Group   3 Type H   : 5s2p1d contracted to 3s2p1d pattern {311/11/1}

Atom   0C    basis set group =>   1
Atom   1C    basis set group =>   1
Atom   2O    basis set group =>   2
Atom   3H    basis set group =>   3
Atom   4H    basis set group =>   3
Atom   5C    basis set group =>   1
Atom   6H    basis set group =>   3
Atom   7H    basis set group =>   3
Atom   8O    basis set group =>   2
Atom   9H    basis set group =>   3
---------------------------------
AUXILIARY/J BASIS SET INFORMATION
---------------------------------
There are 3 groups of distinct atoms

 Group   1 Type C   : 12s5p4d2f1g contracted to 6s4p3d1f1g pattern {711111/2111/211/2/1}
 Group   2 Type O   : 12s5p4d2f1g contracted to 6s4p3d1f1g pattern {711111/2111/211/2/1}
 Group   3 Type H   : 5s2p1d contracted to 3s1p1d pattern {311/2/1}

Atom   0C    basis set group =>   1
Atom   1C    basis set group =>   1
Atom   2O    basis set group =>   2
Atom   3H    basis set group =>   3
Atom   4H    basis set group =>   3
Atom   5C    basis set group =>   1
Atom   6H    basis set group =>   3
Atom   7H    basis set group =>   3
Atom   8O    basis set group =>   2
Atom   9H    basis set group =>   3
------------------------------------------------------------------------------
                             ORCA STARTUP CALCULATIONS
                           -- RI-GTO INTEGRALS CHOSEN --
------------------------------------------------------------------------------
------------------------------------------------------------------------------
                   ___                                                        
                  /   \      - P O W E R E D   B Y -                         
                 /     \                                                     
                 |  |  |   _    _      __       _____    __    __             
                 |  |  |  | |  | |    /  \     |  _  \  |  |  /  |          
                  \  \/   | |  | |   /    \    | | | |  |  | /  /          
                 / \  \   | |__| |  /  /\  \   | |_| |  |  |/  /          
                |  |  |   |  __  | /  /__\  \  |    /   |      \           
                |  |  |   | |  | | |   __   |  |    \   |  |\   \          
                \     /   | |  | | |  |  |  |  | |\  \  |  | \   \       
                 \___/    |_|  |_| |__|  |__|  |_| \__\ |__|  \__/        
                                                                              
                      - O R C A' S   B I G   F R I E N D -                    
                                      &                                       
                       - I N T E G R A L  F E E D E R -                       
                                                                              
 v1 FN, 2020, v2 2021, v3 2022-2024                                           
------------------------------------------------------------------------------


----------------------
SHARK INTEGRAL PACKAGE
----------------------

Number of atoms                             ...     10
Number of basis functions                   ...    225
Number of shells                            ...     85
Maximum angular momentum                    ...      3
Integral batch strategy                     ... SHARK/LIBINT Hybrid
RI-J (if used) integral strategy            ... SPLIT-RIJ (Revised 2003 algorithm where possible)
Printlevel                                  ...      1
Contraction scheme used                     ... SEGMENTED contraction
Prescreening option                         ... SCHWARTZ
   Thresh                                   ... 2.500e-11
   Tcut                                     ... 2.500e-12
   Tpresel                                  ... 2.500e-12 
Coulomb Range Separation                    ... NOT USED
Exchange Range Separation                   ... NOT USED
Multipole approximations                    ... NOT USED
Finite Nucleus Model                        ... NOT USED
CABS basis                                  ... NOT available
Auxiliary Coulomb fitting basis             ... AVAILABLE
   # of basis functions in Aux-J            ...    300
   # of shells in Aux-J                     ...    100
   Maximum angular momentum in Aux-J        ...      4
Auxiliary J/K fitting basis                 ... NOT available
Auxiliary Correlation fitting basis         ... NOT available
Auxiliary 'external' fitting basis          ... NOT available

Checking pre-screening integrals            ... done (  0.0 sec) Dimension = 85
   => SHARK Basis and OBASIS are compatible. Storing Pre-screening
Shell pair information
Shell pair cut-off parameter TPreSel        ...   2.5e-12
Total number of shell pairs                 ...      3655
Shell pairs after pre-screening             ...      3506
Total number of primitive shell pairs       ...      9995
Primitive shell pairs kept                  ...      7803
          la=0 lb=0:    765 shell pairs
          la=1 lb=0:    964 shell pairs
          la=1 lb=1:    321 shell pairs
          la=2 lb=0:    569 shell pairs
          la=2 lb=1:    367 shell pairs
          la=2 lb=2:    116 shell pairs
          la=3 lb=0:    193 shell pairs
          la=3 lb=1:    123 shell pairs
          la=3 lb=2:     73 shell pairs
          la=3 lb=3:     15 shell pairs

Checking whether 4 symmetric matrices of dimension 225 fit in memory
:Max Core in MB      =  28672.00
 MB in use           =      7.68
 MB left             =  28664.32
 MB needed           =      0.78
 Data fit in memory  = YES
Calculating RI/J V-Matrix + Cholesky decomp.... done (  0.1 sec)
Calculating Nuclear repulsion               ... done (  0.0 sec) ENN=    170.640154759067 Eh

Diagonalization of the overlap matrix:
Smallest eigenvalue                        ... 2.523e-04
Time for diagonalization                   ...    0.090 sec
Threshold for overlap eigenvalues          ... 1.000e-07
Number of eigenvalues below threshold      ... 0
Time for construction of square roots      ...    0.003 sec
Total time needed                          ...    0.093 sec

-------------------
DFT GRID GENERATION
-------------------

General Integration Accuracy     IntAcc      ... 4.388
Radial Grid Type                 RadialGrid  ... OptM3 with GC (2021)
Angular Grid (max. ang.)         AngularGrid ... 4 (Lebedev-302)
Angular grid pruning method      GridPruning ... 4 (adaptive)
Weight generation scheme         WeightScheme... mBecke (2022)
Basis function cutoff            BFCut       ... 1.0000e-11
Integration weight cutoff        WCut        ... 1.0000e-14
Partially contracted basis set               ... off
Rotationally invariant grid construction     ... off
Angular grids for H and He will be reduced by one unit

Total number of grid points                  ...    46592
Total number of batches                      ...      731
Average number of points per batch           ...       63
Average number of grid points per atom       ...     4659
Grids setup in   0.4 sec
Initializing property integral containers    ... done (  0.0 sec)

SHARK setup successfully completed in   1.5 seconds

Maximum memory used throughout the entire STARTUP-calculation: 28.1 MB
-------------------------------------------------------------------------------
                                 ORCA GUESS
                   Start orbitals & Density for SCF / CASSCF
-------------------------------------------------------------------------------

------------
SCF SETTINGS
------------
Hamiltonian:
 Density Functional     Method          .... DFT(GTOs)
 Exchange Functional    Exchange        .... PBE
   PBE kappa parameter   XKappa         ....  0.804000
   PBE mue parameter    XMuePBE         ....  0.219520
 Correlation Functional Correlation     .... PBE
   PBE beta parameter  CBetaPBE         ....  0.066725
 LDA part of GGA corr.  LDAOpt          .... PW91-LDA
 Gradients option       PostSCFGGA      .... off
   NL short-range parameter             ....  6.400000
 RI-approximation to the Coulomb term is turned on
   Number of AuxJ basis functions       .... 300


General Settings:
 Integral files         IntName         .... 3_fluoropropanoic_acid_defluorinated
 Hartree-Fock type      HFTyp           .... RHF
 Total Charge           Charge          ....    1
 Multiplicity           Mult            ....    1
 Number of Electrons    NEL             ....   38
 Basis Dimension        Dim             ....  225
 Nuclear Repulsion      ENuc            ....    170.6401547591 Eh

Convergence Acceleration:
 AO-DIIS                CNVDIIS         .... on
   Start iteration      DIISMaxIt       ....    12
   Startup error        DIISStart       ....  0.200000
   # of expansion vecs  DIISMaxEq       ....     5
   Bias factor          DIISBfac        ....   1.050
   Max. coefficient     DIISMaxC        ....  10.000
 MO-DIIS                CNVKDIIS        .... off
 Trust-Rad. Augm. Hess. CNVTRAH         .... auto
   Auto Start mean grad. ratio tolernc. ....  1.125000
   Auto Start start iteration           ....    50
   Auto Start num. interpolation iter.  ....    10
   Max. Number of Micro iterations      ....    24
   Max. Number of Macro iterations      .... Maxiter - #DIIS iter
   Number of Davidson start vectors     ....     2
   Converg. threshold    (grad. norm)   ....   1.000e-05
   Grad. Scal. Fac. for Micro threshold ....   0.100
   Minimum threshold for Micro iter.    ....   1.000e-02
   NR start threshold (gradient norm)   ....   1.000e-04
   Initial trust radius                 ....   0.400
   Minimum AH scaling param. (alpha)    ....   1.000
   Maximum AH scaling param. (alpha)    .... 1000.000
   Quad. conv. algorithm                .... NR
   White noise on init. David. guess    .... on
   Maximum white noise                  ....   0.010
   Pseudo random numbers                .... off
   Inactive MOs                         .... canonical
   Orbital update algorithm             .... Taylor
   Preconditioner                       .... Diag
   Full preconditioner red. dimension   ....   250
 SOSCF                 CNVSOSCF           .... on
   Start iteration     SOSCFMaxIt         ....   150
   Startup grad/error  SOSCFStart         ....  0.003300
   Hessian update      SOSCFHessUp        .... L-BFGS
   Autom. constraints  SOSCFAutoConstrain .... off
 Level Shifting         CNVShift        .... on
   Level shift para.    LevelShift      ....    0.2500
   Turn off err/grad.   ShiftErr        ....    0.0010
 Zerner damping         CNVZerner       .... off
 Static damping         CNVDamp         .... on
   Fraction old density DampFac         ....    0.7000
   Max. Damping (<1)    DampMax         ....    0.9800
   Min. Damping (>=0)   DampMin         ....    0.0000
   Turn off err/grad.   DampErr         ....    0.1000

SCF Procedure:
 Maximum # iterations   MaxIter         ....   125
 SCF integral mode      SCFMode         .... Direct
   Integral package                     .... SHARK and LIBINT hybrid scheme
 Reset frequency        DirectResetFreq ....    20
 Integral Threshold     Thresh          ....  2.500e-11 Eh
 Primitive CutOff       TCut            ....  2.500e-12 Eh

Convergence Tolerance:
 Convergence Check Mode ConvCheckMode   .... Total+1el-Energy
 Convergence forced     ConvForced      .... 0
 Energy Change          TolE            ....  1.000e-08 Eh
 1-El. energy change                    ....  1.000e-05 Eh
 Orbital Gradient       TolG            ....  1.000e-05
 Orbital Rotation angle TolX            ....  1.000e-05
 DIIS Error             TolErr          ....  5.000e-07

------------------------------
INITIAL GUESS: MODEL POTENTIAL
------------------------------
Loading Hartree-Fock densities                     ... done
Calculating cut-offs                               ... done
Initializing the effective Hamiltonian             ... done
Setting up the integral package (SHARK)            ... done
Starting the Coulomb interaction                   ... done (   0.2 sec)
Making the grid                                    ... done (   0.1 sec)
Mapping shells                                     ... done
Starting the XC term evaluation                    ... done (   0.2 sec)
  promolecular density results
     # of electrons  =     38.999165894
     EX              =    -33.081789545
     EC              =     -1.284453471
     EX+EC           =    -34.366243016
Transforming the Hamiltonian                       ... done (   0.0 sec)
Diagonalizing the Hamiltonian                      ... done (   0.0 sec)
Back transforming the eigenvectors                 ... done (   0.0 sec)
Now organizing SCF variables                       ... done
                      ------------------
                      INITIAL GUESS DONE (   0.5 sec)
                      ------------------
             **** ENERGY FILE WAS UPDATED (3_fluoropropanoic_acid_defluorinated.en.tmp) ****
Finished Guess after   0.6 sec
Maximum memory used throughout the entire GUESS-calculation: 18.0 MB

-------------------------------------------------------------------------------------------
                                      ORCA LEAN-SCF
                              memory conserving SCF solver
-------------------------------------------------------------------------------------------

--------------------
CPCM SOLVATION MODEL
--------------------
CPCM parameters:
  Epsilon                                         ...      78.3550
  Refrac                                          ...       1.3328
  Rsolv                                           ...       1.3000
  Surface type                                    ... GAUSSIAN VDW
  Discretization scheme                           ... Constant charge density
    Threshold for H atoms                         ...       5.0000 (charges/Ang^2)
    Threshold for non-H atoms                     ...       5.0000 (charges/Ang^2)
  Epsilon function type                           ...         CPCM
Solvent:                                          ... WATER
SMD-CDS solvent descriptors:
  Soln                                            ...       1.3328
  Soln25                                          ...       1.3323
  Sola                                            ...       0.0000
  Solb                                            ...       0.0000
  Solg                                            ...       0.0000
  Solc                                            ...       0.0000
  Solh                                            ...       0.0000
Radii:
  Scheme                                          ... Element-dependent radii
  Radius for C  used is    3.4960 Bohr (=   1.8500 Ang.)
  Radius for O  used is    2.8724 Bohr (=   1.5200 Ang.)
  Radius for H  used is    2.2677 Bohr (=   1.2000 Ang.)
Calculating surface                               ...        done! (  0.0s)
Cavity surface points                             ...          796
Cavity Volume                                     ...     506.3323
Cavity Surface-area                               ...     357.5527
Calculating surface distance matrix               ...        done! (  0.0s)
Performing Cholesky decomposition & store         ...        done! (  0.0s)
Overall time for CPCM initialization              ...                 0.0s

----------------------------------------D-I-I-S--------------------------------------------
Iteration    Energy (Eh)           Delta-E    RMSDP     MaxDP     DIISErr   Damp  Time(sec)
-------------------------------------------------------------------------------------------
               ***  Starting incremental Fock matrix formation  ***
    1    -267.1317078734984989     0.00e+00  1.93e-03  9.09e-02  2.74e-01  0.700   1.5
Warning: op=0 Small HOMO/LUMO gap (  -0.039) - skipping pre-diagonalization
         Will do a full diagonalization
    2    -267.2162430594297575    -8.45e-02  1.24e-03  4.70e-02  7.61e-02  0.700   1.1
                               ***Turning on AO-DIIS***
    3    -267.2381001780857446    -2.19e-02  4.90e-04  1.15e-02  2.26e-02  0.700   1.1
    4    -267.2503723995638438    -1.23e-02  9.12e-04  4.39e-02  2.79e-02  0.000   1.0
    5    -267.2854690768951968    -3.51e-02  3.71e-04  1.50e-02  1.80e-02  0.000   1.1
    6    -267.2881575793323350    -2.69e-03  1.78e-04  3.59e-03  6.11e-03  0.000   1.0
    7    -267.2888159918402948    -6.58e-04  1.17e-04  2.50e-03  3.53e-03  0.000   1.0
    8    -267.2890653517540613    -2.49e-04  9.16e-05  3.50e-03  4.13e-03  0.000   1.0
                              *** Initializing SOSCF ***
---------------------------------------S-O-S-C-F--------------------------------------
Iteration    Energy (Eh)           Delta-E    RMSDP     MaxDP     MaxGrad    Time(sec)
--------------------------------------------------------------------------------------
    9    -267.2891912841844260    -1.26e-04  6.79e-05  3.00e-03  1.89e-03     1.0
               *** Restarting incremental Fock matrix formation ***
   10    -267.2892407091544555    -4.94e-05  1.54e-04  4.09e-03  1.99e-03     1.1
   11    -267.2892449283071983    -4.22e-06  9.65e-05  5.15e-03  1.44e-03     1.0
   12    -267.2893316459657740    -8.67e-05  2.89e-05  9.29e-04  3.90e-04     1.0
   13    -267.2893275650889677     4.08e-06  1.84e-05  6.47e-04  1.07e-03     1.0
   14    -267.2893349080727603    -7.34e-06  3.50e-06  1.38e-04  4.68e-05     1.0
   15    -267.2893349664022367    -5.83e-08  1.46e-06  3.87e-05  2.83e-05     0.9
   16    -267.2893349788135424    -1.24e-08  9.42e-07  3.70e-05  1.72e-05     0.9
   17    -267.2893349856429950    -6.83e-09  3.99e-07  1.57e-05  4.98e-06     0.9
                 **** Energy Check signals convergence ****

               *****************************************************
               *                     SUCCESS                       *
               *           SCF CONVERGED AFTER  17 CYCLES          *
               *****************************************************


SMD CDS free energy correction energy :                 4.86668     Kcal/mol
Total Energy after SMD CDS correction =              -267.281579440 Eh
             **** ENERGY FILE WAS UPDATED (3_fluoropropanoic_acid_defluorinated.en.tmp) ****

----------------
TOTAL SCF ENERGY
----------------

Total Energy       :       -267.28157944031540 Eh           -7273.10153 eV

Components:
Nuclear Repulsion  :        170.64015475906683 Eh            4643.35467 eV
Electronic Energy  :       -437.79192728752793 Eh          -11912.92398 eV
One Electron Energy:       -692.71022008531395 Eh          -18849.60338 eV
Two Electron Energy:        254.91829279778602 Eh            6936.67940 eV
CPCM Dielectric    :         -0.13756245756864 Eh              -3.74326 eV
SMD CDS (Gcds)     :          0.00775554571437 Eh               0.21104 eV

Virial components:
Potential Energy   :       -533.38741509537556 Eh          -14514.20945 eV
Kinetic Energy     :        266.10583565506016 Eh            7241.10792 eV
Virial Ratio       :          2.00441833145959

DFT components:
N(Alpha)           :       18.999980646803 electrons
N(Beta)            :       18.999980646803 electrons
N(Total)           :       37.999961293605 electrons
E(X)               :      -33.380126801933 Eh       
E(C)               :       -1.254148219289 Eh       
E(XC)              :      -34.634275021222 Eh       

CPCM Solvation Model Properties:
Surface-charge          :         -1.02674683563143
Corrected charge        :         -1.00000000000000
Outlying charge corr.   :          0.00006799300722 Eh               0.00185 eV
Free-energy (cav+disp)  :          0.00775554571437 Eh               0.21104 eV

---------------
SCF CONVERGENCE
---------------

  Last Energy change         ...    6.8295e-09  Tolerance :   1.0000e-08
  Last MAX-Density change    ...    1.5747e-05  Tolerance :   1.0000e-07
  Last RMS-Density change    ...    3.9852e-07  Tolerance :   5.0000e-09
  Last DIIS Error            ...    1.8874e-03  Tolerance :   5.0000e-07
  Last Orbital Gradient      ...    4.9783e-06  Tolerance :   1.0000e-05
  Last Orbital Rotation      ...    1.6450e-05  Tolerance :   1.0000e-05


----------------
ORBITAL ENERGIES
----------------

  NO   OCC          E(Eh)            E(eV) 
   0   2.0000     -18.843244      -512.7507 
   1   2.0000     -18.782172      -511.0889 
   2   2.0000     -10.068311      -273.9727 
   3   2.0000     -10.039491      -273.1885 
   4   2.0000      -9.958497      -270.9845 
   5   2.0000      -1.069019       -29.0895 
   6   2.0000      -0.980273       -26.6746 
   7   2.0000      -0.770359       -20.9625 
   8   2.0000      -0.644945       -17.5498 
   9   2.0000      -0.596978       -16.2446 
  10   2.0000      -0.513566       -13.9748 
  11   2.0000      -0.481977       -13.1153 
  12   2.0000      -0.455365       -12.3911 
  13   2.0000      -0.431444       -11.7402 
  14   2.0000      -0.403854       -10.9894 
  15   2.0000      -0.380840       -10.3632 
  16   2.0000      -0.363704        -9.8969 
  17   2.0000      -0.320868        -8.7313 
  18   2.0000      -0.282664        -7.6917 
  19   0.0000      -0.258810        -7.0426 
  20   0.0000      -0.070717        -1.9243 
  21   0.0000       0.010086         0.2745 
  22   0.0000       0.030553         0.8314 
  23   0.0000       0.069359         1.8873 
  24   0.0000       0.081830         2.2267 
  25   0.0000       0.103859         2.8261 
  26   0.0000       0.108723         2.9585 
  27   0.0000       0.115532         3.1438 
  28   0.0000       0.138284         3.7629 
  29   0.0000       0.170151         4.6300 
*Only the first 10 virtual orbitals were printed.

                    ********************************
                    * MULLIKEN POPULATION ANALYSIS *
                    ********************************

-----------------------
MULLIKEN ATOMIC CHARGES
-----------------------
   0 C :    0.196444
   1 C :   -0.124881
   2 O :   -0.153570
   3 H :    0.177436
   4 H :    0.200103
   5 C :    0.313108
   6 H :    0.298349
   7 H :    0.189466
   8 O :   -0.289531
   9 H :    0.193076
Sum of atomic charges:    1.0000000

--------------------------------
MULLIKEN REDUCED ORBITAL CHARGES
--------------------------------
  0 C s       :     3.298900  s :     3.298900
      pz      :     0.939803  p :     2.448123
      px      :     0.645551
      py      :     0.862769
      dz2     :     0.005944  d :     0.053598
      dxz     :     0.010130
      dyz     :     0.016121
      dx2y2   :     0.013137
      dxy     :     0.008266
      f0      :     0.000371  f :     0.002935
      f+1     :     0.000301
      f-1     :     0.000254
      f+2     :     0.000179
      f-2     :     0.000649
      f+3     :     0.000700
      f-3     :     0.000481

  1 C s       :     3.131813  s :     3.131813
      pz      :     1.070204  p :     2.908285
      px      :     0.845536
      py      :     0.992545
      dz2     :     0.011466  d :     0.079959
      dxz     :     0.016164
      dyz     :     0.023576
      dx2y2   :     0.013542
      dxy     :     0.015211
      f0      :     0.000580  f :     0.004824
      f+1     :     0.000557
      f-1     :     0.000426
      f+2     :     0.000513
      f-2     :     0.000991
      f+3     :     0.000953
      f-3     :     0.000804

  2 O s       :     3.741504  s :     3.741504
      pz      :     1.656661  p :     4.381448
      px      :     1.484492
      py      :     1.240295
      dz2     :     0.004136  d :     0.029270
      dxz     :     0.005992
      dyz     :     0.003374
      dx2y2   :     0.007323
      dxy     :     0.008445
      f0      :     0.000229  f :     0.001348
      f+1     :     0.000207
      f-1     :     0.000175
      f+2     :     0.000052
      f-2     :     0.000226
      f+3     :     0.000216
      f-3     :     0.000242

  3 H s       :     0.782790  s :     0.782790
      pz      :     0.012729  p :     0.037981
      px      :     0.009684
      py      :     0.015568
      dz2     :     0.000616  d :     0.001793
      dxz     :     0.000251
      dyz     :     0.000135
      dx2y2   :     0.000344
      dxy     :     0.000446

  4 H s       :     0.763282  s :     0.763282
      pz      :     0.018854  p :     0.035099
      px      :     0.006747
      py      :     0.009498
      dz2     :     0.000491  d :     0.001515
      dxz     :     0.000276
      dyz     :     0.000443
      dx2y2   :     0.000108
      dxy     :     0.000196

  5 C s       :     3.069836  s :     3.069836
      pz      :     0.796247  p :     2.341196
      px      :     0.807228
      py      :     0.737721
      dz2     :     0.019386  d :     0.250703
      dxz     :     0.023823
      dyz     :     0.066690
      dx2y2   :     0.059165
      dxy     :     0.081641
      f0      :     0.002290  f :     0.025156
      f+1     :     0.001826
      f-1     :     0.002506
      f+2     :     0.003185
      f-2     :     0.002852
      f+3     :     0.007782
      f-3     :     0.004715

  6 H s       :     0.622363  s :     0.622363
      pz      :     0.024988  p :     0.070885
      px      :     0.019676
      py      :     0.026221
      dz2     :     0.000959  d :     0.008402
      dxz     :     0.000363
      dyz     :     0.002676
      dx2y2   :     0.001973
      dxy     :     0.002431

  7 H s       :     0.770807  s :     0.770807
      pz      :     0.016957  p :     0.037960
      px      :     0.009660
      py      :     0.011343
      dz2     :     0.000447  d :     0.001767
      dxz     :     0.000496
      dyz     :     0.000461
      dx2y2   :     0.000171
      dxy     :     0.000193

  8 O s       :     3.807114  s :     3.807114
      pz      :     1.458278  p :     4.451256
      px      :     1.657033
      py      :     1.335944
      dz2     :     0.002747  d :     0.029364
      dxz     :     0.000343
      dyz     :     0.010080
      dx2y2   :     0.007579
      dxy     :     0.008615
      f0      :     0.000199  f :     0.001797
      f+1     :     0.000025
      f-1     :     0.000213
      f+2     :     0.000401
      f-2     :     0.000041
      f+3     :     0.000550
      f-3     :     0.000368

  9 H s       :     0.770453  s :     0.770453
      pz      :     0.010351  p :     0.034935
      px      :     0.008058
      py      :     0.016526
      dz2     :     0.000323  d :     0.001536
      dxz     :     0.000268
      dyz     :     0.000221
      dx2y2   :     0.000361
      dxy     :     0.000364



                     *******************************
                     * LOEWDIN POPULATION ANALYSIS *
                     *******************************

----------------------
LOEWDIN ATOMIC CHARGES
----------------------
   0 C :    0.525285
   1 C :    0.037967
   2 O :    0.476017
   3 H :    0.071150
   4 H :    0.058252
   5 C :   -0.414622
   6 H :   -0.028403
   7 H :    0.077984
   8 O :    0.139115
   9 H :    0.057255

-------------------------------
LOEWDIN REDUCED ORBITAL CHARGES
-------------------------------
  0 C s       :     2.836310  s :     2.836310
      pz      :     0.906800  p :     2.421071
      px      :     0.658419
      py      :     0.855851
      dz2     :     0.026847  d :     0.195565
      dxz     :     0.032869
      dyz     :     0.054089
      dx2y2   :     0.039848
      dxy     :     0.041913
      f0      :     0.003696  f :     0.021769
      f+1     :     0.002308
      f-1     :     0.002027
      f+2     :     0.001951
      f-2     :     0.003694
      f+3     :     0.004157
      f-3     :     0.003938

  1 C s       :     2.712793  s :     2.712793
      pz      :     1.006376  p :     2.885585
      px      :     0.903351
      py      :     0.975859
      dz2     :     0.049409  d :     0.326977
      dxz     :     0.061220
      dyz     :     0.074210
      dx2y2   :     0.052107
      dxy     :     0.090032
      f0      :     0.005181  f :     0.036678
      f+1     :     0.004908
      f-1     :     0.003189
      f+2     :     0.005305
      f-2     :     0.006164
      f+3     :     0.005600
      f-3     :     0.006332

  2 O s       :     3.210046  s :     3.210046
      pz      :     1.509634  p :     4.230331
      px      :     1.452411
      py      :     1.268286
      dz2     :     0.008988  d :     0.077433
      dxz     :     0.008769
      dyz     :     0.010363
      dx2y2   :     0.022696
      dxy     :     0.026616
      f0      :     0.000420  f :     0.006173
      f+1     :     0.000371
      f-1     :     0.000567
      f+2     :     0.000490
      f-2     :     0.001222
      f+3     :     0.001463
      f-3     :     0.001639

  3 H s       :     0.747626  s :     0.747626
      pz      :     0.050644  p :     0.150756
      px      :     0.037678
      py      :     0.062434
      dz2     :     0.006368  d :     0.030469
      dxz     :     0.003800
      dyz     :     0.007606
      dx2y2   :     0.006148
      dxy     :     0.006547

  4 H s       :     0.763536  s :     0.763536
      pz      :     0.082825  p :     0.149571
      px      :     0.025747
      py      :     0.040999
      dz2     :     0.011175  d :     0.028640
      dxz     :     0.004784
      dyz     :     0.009087
      dx2y2   :     0.001054
      dxy     :     0.002539

  5 C s       :     2.744264  s :     2.744264
      pz      :     0.781777  p :     2.594706
      px      :     0.862668
      py      :     0.950261
      dz2     :     0.085527  d :     0.920309
      dxz     :     0.088355
      dyz     :     0.202113
      dx2y2   :     0.246656
      dxy     :     0.297657
      f0      :     0.010496  f :     0.155343
      f+1     :     0.008252
      f-1     :     0.017162
      f+2     :     0.020559
      f-2     :     0.018528
      f+3     :     0.049302
      f-3     :     0.031045

  6 H s       :     0.627003  s :     0.627003
      pz      :     0.088210  p :     0.307598
      px      :     0.084069
      py      :     0.135319
      dz2     :     0.010305  d :     0.093802
      dxz     :     0.004075
      dyz     :     0.028219
      dx2y2   :     0.022738
      dxy     :     0.028465

  7 H s       :     0.739507  s :     0.739507
      pz      :     0.069815  p :     0.151935
      px      :     0.037395
      py      :     0.044725
      dz2     :     0.010123  d :     0.030573
      dxz     :     0.006935
      dyz     :     0.009293
      dx2y2   :     0.001890
      dxy     :     0.002332

  8 O s       :     3.405803  s :     3.405803
      pz      :     1.366614  p :     4.384574
      px      :     1.532713
      py      :     1.485247
      dz2     :     0.007945  d :     0.064435
      dxz     :     0.000488
      dyz     :     0.015428
      dx2y2   :     0.023817
      dxy     :     0.016758
      f0      :     0.000542  f :     0.006072
      f+1     :     0.000093
      f-1     :     0.001012
      f+2     :     0.000963
      f-2     :     0.000106
      f+3     :     0.001593
      f-3     :     0.001763

  9 H s       :     0.766632  s :     0.766632
      pz      :     0.040711  p :     0.147519
      px      :     0.033710
      py      :     0.073099
      dz2     :     0.004182  d :     0.028594
      dxz     :     0.003727
      dyz     :     0.007193
      dx2y2   :     0.007361
      dxy     :     0.006131



                      *****************************
                      * MAYER POPULATION ANALYSIS *
                      *****************************

  NA   - Mulliken gross atomic population
  ZA   - Total nuclear charge
  QA   - Mulliken gross atomic charge
  VA   - Mayer's total valence
  BVA  - Mayer's bonded valence
  FA   - Mayer's free valence

  ATOM       NA         ZA         QA         VA         BVA        FA
  0 C      5.8036     6.0000     0.1964     3.3997     3.3997     0.0000
  1 C      6.1249     6.0000    -0.1249     3.8358     3.8358    -0.0000
  2 O      8.1536     8.0000    -0.1536     2.3693     2.3693    -0.0000
  3 H      0.8226     1.0000     0.1774     0.9952     0.9952    -0.0000
  4 H      0.7999     1.0000     0.2001     0.9739     0.9739     0.0000
  5 C      5.6869     6.0000     0.3131     4.3762     4.3762    -0.0000
  6 H      0.7017     1.0000     0.2983     0.9586     0.9586     0.0000
  7 H      0.8105     1.0000     0.1895     0.9896     0.9896    -0.0000
  8 O      8.2895     8.0000    -0.2895     2.2425     2.2425     0.0000
  9 H      0.8069     1.0000     0.1931     0.9808     0.9808     0.0000

  Mayer bond orders larger than 0.100000
B(  0-C ,  1-C ) :   1.1460 B(  0-C ,  4-H ) :   0.9415 B(  0-C ,  5-C ) :   0.1116 
B(  0-C ,  8-O ) :   0.1265 B(  0-C ,  9-H ) :   0.9411 B(  1-C ,  3-H ) :   0.9210 
B(  1-C ,  5-C ) :   0.8518 B(  1-C ,  7-H ) :   0.9029 B(  2-O ,  5-C ) :   1.3172 
B(  2-O ,  6-H ) :   0.9025 B(  5-C ,  8-O ) :   2.0206 

-------
TIMINGS
-------

Total SCF time: 0 days 0 hours 0 min 18 sec 

Total time                  ....      18.464 sec
Sum of individual times     ....      17.547 sec  ( 95.0%)

SCF preparation             ....       0.080 sec  (  0.4%)
Fock matrix formation       ....      17.202 sec  ( 93.2%)
  Startup                   ....       0.003 sec  (  0.0% of F)
  Split-RI-J                ....       3.818 sec  ( 22.2% of F)
  XC integration            ....       9.525 sec  ( 55.4% of F)
    Basis function eval.    ....       2.644 sec  ( 27.8% of XC)
    Density eval.           ....       2.671 sec  ( 28.0% of XC)
    XC-Functional eval.     ....       0.348 sec  (  3.7% of XC)
    XC-Potential eval.      ....       3.573 sec  ( 37.5% of XC)
  CPCM terms                ....       4.642 sec  ( 27.0% of F)
Diagonalization             ....       0.000 sec  (  0.0%)
Density matrix formation    ....       0.023 sec  (  0.1%)
Total Energy calculation    ....       0.004 sec  (  0.0%)
Population analysis         ....       0.009 sec  (  0.1%)
Orbital Transformation      ....       0.027 sec  (  0.1%)
Orbital Orthonormalization  ....       0.000 sec  (  0.0%)
DIIS solution               ....       0.136 sec  (  0.7%)
SOSCF solution              ....       0.066 sec  (  0.4%)
Finished LeanSCF after  18.5 sec

Maximum memory used throughout the entire LEANSCF-calculation: 21.1 MB

------------------------------------------------------------------------------
                         ORCA PROPERTY INTEGRAL CALCULATIONS
------------------------------------------------------------------------------

GBWName                                   ... 3_fluoropropanoic_acid_defluorinated.gbw
Number of atoms                           ...     10
Number of basis functions                 ...    225
Max core memory                           ...  28672 MB

Dipole integrals                          ... YES
Quadrupole integrals                      ...  NO
Linear momentum integrals                 ...  NO
Angular momentum integrals                ...  NO
Higher moments length integrals           ...  NO
Higher moments velocity integrals         ...  NO
Kinetic energy integrals                  ...  NO
GIAO right hand sides                     ...  NO
GIAO dipole derivative integrals          ...  NO
SOC integrals                             ...  NO
EPR diamagnetic integrals (GIAO)          ...  NO
EPR gauge integrals                       ...  NO
Field gradient integrals                  ...  NO (   0 nuclei)
Spin-dipole/Fermi contact integrals       ...  NO (   0 nuclei)
Contact density integrals                 ...  NO (   0 nuclei)
Nucleus-orbit integrals                   ...  NO (   0 nuclei)
Geometric perturbations                   ...  NO (  10 nuclei)

Choice of electric origin   ... Center of mass
Position of electric origin ... ( -8.2175,  1.6241, -0.6206) 
Choice of magnetic origin   ... GIAO
Position of magnetic origin ... (  0.0000,  0.0000,  0.0000) 

Calculating integrals                     ... Electric Dipole (Length)     done (  0.0 sec)

Property integrals calculated in   0.0 sec

Maximum memory used throughout the entire PROPINT-calculation: 18.4 MB


-------------------------------------------------------------------------------
                          DFT DISPERSION CORRECTION                            
                                                                               
                                DFTD4 V3.4.0                                   
-------------------------------------------------------------------------------
The PBE functional is recognized
Active option DFTDOPT                   ...         5   

-------------------------   ----------------
Dispersion correction           -0.005211016
-------------------------   ----------------


-------------------------   --------------------
FINAL SINGLE POINT ENERGY      -267.286790456711
-------------------------   --------------------

------------------------------------------------------------------------------
                         ORCA SCF GRADIENT CALCULATION
------------------------------------------------------------------------------

Nuc. rep. gradient        (SHARK) ... done (  0.0 sec)
HCore & Overlap gradient  (SHARK) ... done (  0.2 sec)
Split-RIJ-J gradient      (SHARK) ... done (  1.5 sec)
XC gradient                       ... done (  4.4 sec)
CPCM gradient                     ... done (  0.8 sec)
SMD gradient                      ... done (  0.0 sec)
Dispersion correction             ... done (  0.1 sec)

-------------------
DISPERSION GRADIENT
-------------------

   1   C   :   -0.000199073   -0.000036066    0.000066537
   2   C   :   -0.000042593    0.000046132    0.000028420
   3   O   :    0.000151717    0.000078078   -0.000054863
   4   H   :   -0.000035406    0.000044685   -0.000010125
   5   H   :   -0.000064675   -0.000015493   -0.000003618
   6   C   :    0.000083689    0.000002920   -0.000030903
   7   H   :    0.000044272    0.000012861   -0.000017431
   8   H   :   -0.000011971    0.000027596    0.000049240
   9   O   :    0.000118971   -0.000133647   -0.000057918
  10   H   :   -0.000044932   -0.000027066    0.000030659

Difference to translation invariance:
           :   -0.0000000000   -0.0000000000    0.0000000000

Difference to rotation invariance:
           :    0.0000000000    0.0000000000    0.0000000000

Norm of the Dispersion gradient    ...    0.0003779007
RMS gradient                       ...    0.0000689949
MAX gradient                       ...    0.0001990730

------------------
CARTESIAN GRADIENT
------------------

   1   C   :   -0.110753078    0.010316230    0.052572714
   2   C   :    0.092911801   -0.006492185   -0.033742275
   3   O   :   -0.002987961   -0.014892768    0.002423281
   4   H   :   -0.002656731   -0.002800247    0.008360690
   5   H   :    0.034510648   -0.014866147   -0.002527105
   6   C   :   -0.014740211    0.054206186    0.003434889
   7   H   :   -0.007508710   -0.013222457    0.002307420
   8   H   :   -0.010732999    0.001638902   -0.006015694
   9   O   :   -0.000155371   -0.007808039    0.001660755
  10   H   :    0.022112611   -0.006079475   -0.028474675

Difference to translation invariance:
           :    0.0000000000   -0.0000000000   -0.0000000000

Difference to rotation invariance:
           :   -0.0000452012    0.0001898006    0.0005822307

Norm of the Cartesian gradient     ...    0.1778991173
RMS gradient                       ...    0.0324797865
MAX gradient                       ...    0.1107530783

-------
TIMINGS
-------

Total SCF gradient time     ....        6.979 sec

Densities                   ....       0.001 sec  (  0.0%)
One electron gradient       ....       0.208 sec  (  3.0%)
RI-J Coulomb gradient       ....       1.461 sec  ( 20.9%)
XC gradient                 ....       4.407 sec  ( 63.1%)
CPCM gradient               ....       0.833 sec  ( 11.9%)
   A-Matrix (El+Nuc)        ....       0.019 sec  (  0.3%)
   Potential                ....       0.814 sec  ( 11.7%)
SMD gradient                ....       0.001 sec  (  0.0%)

Maximum memory used throughout the entire SCFGRAD-calculation: 36.8 MB
------------------------------------------------------------------------------
                         ORCA GEOMETRY RELAXATION STEP
------------------------------------------------------------------------------

Reading the OPT-File                    .... done
Getting information on internals        .... done
Copying old internal coords+grads       .... done
Making the new internal coordinates     .... (2022 redundants) done
Validating the new internal coordinates .... (2022 redundants) done
Calculating the B-matrix                .... done
Calculating the G,G- and P matrices     .... done
Transforming gradient to internals      .... done
Projecting the internal gradient        .... done
Number of atoms                         ....  10
Number of internal coordinates          ....  34
Current Energy                          ....  -267.286790457 Eh
Current gradient norm                   ....     0.177899117 Eh/bohr
Maximum allowed component of the step   ....  0.300
Current trust radius                    ....  0.300
Evaluating the initial hessian          ....  (Almloef) done
Projecting the Hessian                  .... done
Forming the augmented Hessian           .... done
Diagonalizing the augmented Hessian     .... done
Last element of RFO vector              ....  0.887429332
Lowest eigenvalues of augmented Hessian:
 -0.048757525  0.010006079  0.011334664  0.020964513  0.043944844
Length of the computed step             ....  0.519414647
Warning: the length of the step is outside the trust region - taking restricted step instead
The input lambda is                     ....     0.009000
   iter:   5  x=   -0.097211  g=    3.709947 f(x)=     0.183063
   iter:  10  x=   -0.167776  g=    0.596566 f(x)=     0.000000
The output lambda is                    ....    -0.167776 (11 iterations)
The final length of the internal step   ....  0.300000000
Converting the step to Cartesian space:
 Initial RMS(Int)=    0.0514495755
Transforming coordinates:
 Iter   0:  RMS(Cart)=    0.0572100605 RMS(Int)=    1.0589367407
 Iter   5:  RMS(Cart)=    0.0000010874 RMS(Int)=    0.0000010774
done
Storing new coordinates                 .... done

                                .--------------------.
          ----------------------|Geometry convergence|-------------------------
          Item                value                   Tolerance       Converged
          ---------------------------------------------------------------------
          RMS gradient        0.0187146257            0.0001000000      NO
          MAX gradient        0.0514377041            0.0003000000      NO
          RMS step            0.0514495755            0.0020000000      NO
          MAX step            0.1188047192            0.0040000000      NO
          -------------------------------------------------------------------------
          ........................................................
          Max(Bonds)      0.0518      Max(Angles)    5.83
          Max(Dihed)        6.81      Max(Improp)    0.00
          ---------------------------------------------------------------------

The optimization has not yet converged - more geometry cycles are needed


    ---------------------------------------------------------------------------
                         Redundant Internal Coordinates
                            (Angstroem and degrees)

        Definition                    Value    dE/dq     Step     New-Value
    ----------------------------------------------------------------------------
     1. B(C   1,C   0)                1.5418  0.051438 -0.0518    1.4900   
     2. B(H   3,C   1)                1.0928 -0.006126  0.0062    1.0989   
     3. B(H   4,C   0)                1.0923 -0.005453  0.0055    1.0978   
     4. B(C   5,O   2)                1.3068 -0.026741  0.0153    1.3221   
     5. B(C   5,C   1)                1.5186 -0.032312  0.0307    1.5493   
     6. B(H   6,O   2)                0.9721 -0.009411  0.0075    0.9796   
     7. B(H   7,C   1)                1.0926 -0.007702  0.0078    1.1003   
     8. B(O   8,C   5)                1.2133  0.007515 -0.0032    1.2101   
     9. B(H   9,C   0)                1.0932 -0.004511  0.0046    1.0978   
    10. A(H   4,C   0,H   9)          108.65 -0.004807    3.41    112.06   
    11. A(C   1,C   0,H   9)          110.79 -0.036985    5.71    116.51   
    12. A(C   1,C   0,H   4)          110.62 -0.037977    5.83    116.45   
    13. A(C   0,C   1,C   5)          112.88  0.003633   -0.50    112.38   
    14. A(C   0,C   1,H   3)          108.87 -0.006439    0.88    109.75   
    15. A(C   0,C   1,H   7)          109.22 -0.008034    0.87    110.09   
    16. A(C   5,C   1,H   7)          109.08  0.016404   -2.03    107.05   
    17. A(H   3,C   1,H   7)          107.20 -0.010967    1.55    108.75   
    18. A(H   3,C   1,C   5)          109.44  0.004521   -0.66    108.79   
    19. A(C   5,O   2,H   6)          107.96 -0.022344    2.34    110.30   
    20. A(O   2,C   5,O   8)          122.25 -0.002757    0.27    122.52   
    21. A(C   1,C   5,O   8)          124.54 -0.007020    0.70    125.23   
    22. A(C   1,C   5,O   2)          113.09  0.009643   -0.92    112.17   
    23. D(H   7,C   1,C   0,H   4)    174.12  0.007054   -2.82    171.30   
    24. D(C   5,C   1,C   0,H   9)     56.20 -0.030995    6.81     63.01   
    25. D(H   3,C   1,C   0,H   4)     57.37  0.028291   -5.66     51.71   
    26. D(C   5,C   1,C   0,H   4)    -64.36  0.024689   -5.12    -69.48   
    27. D(H   3,C   1,C   0,H   9)    177.93 -0.027394    6.27    184.20   
    28. D(O   2,C   5,C   1,H   3)     50.84  0.002530   -0.64     50.20   
    29. D(O   8,C   5,O   2,H   6)   -178.05  0.001619   -0.49   -178.54   
    30. D(O   2,C   5,C   1,C   0)    172.25 -0.000038   -0.32    171.93   
    31. D(C   1,C   5,O   2,H   6)     -1.90 -0.000732    0.25     -1.65   
    32. D(O   8,C   5,C   1,H   3)   -133.12  0.000331    0.11   -133.01   
    33. D(O   8,C   5,C   1,C   0)    -11.71 -0.002238    0.43    -11.28   
    34. D(O   2,C   5,C   1,H   7)    -66.15  0.003768   -0.98    -67.13   
    ----------------------------------------------------------------------------

Geometry step timings:
Preparation and reading OPT file:      0.000 s ( 1.798 %)
Internal coordinates            :      0.000 s ( 2.420 %)
B/P matrices and projection     :      0.000 s (18.119 %)
Hessian update/contruction      :      0.000 s (13.071 %)
Making the step                 :      0.000 s (29.945 %)
Converting the step to Cartesian:      0.000 s ( 6.362 %)
Storing new data                :      0.000 s ( 2.766 %)
Checking convergence            :      0.000 s ( 3.596 %)
Final printing                  :      0.000 s (21.923 %)
Total time                      :      0.001 s

Time for energy+gradient        :     28.950 s
Time for complete geometry iter :     29.167 s

         *************************************************************
         *                GEOMETRY OPTIMIZATION CYCLE   2            *
         *************************************************************
---------------------------------
CARTESIAN COORDINATES (ANGSTROEM)
---------------------------------
  C     -6.246893    0.560415    0.310164
  C     -5.107022    1.503361    0.131961
  O     -2.932714    1.694545   -0.832272
  H     -5.418622    2.348873   -0.497070
  H     -6.747993    0.232808   -0.610044
  C     -3.876911    0.823470   -0.519826
  H     -3.221117    2.603428   -0.607767
  H     -4.779836    1.889698    1.108905
  O     -3.741633   -0.368266   -0.680671
  H     -6.070910   -0.285251    0.987639

----------------------------
CARTESIAN COORDINATES (A.U.)
----------------------------
  NO LB      ZA    FRAG     MASS         X           Y           Z
   0 C     6.0000    0    12.011  -11.804917    1.059030    0.586126
   1 C     6.0000    0    12.011   -9.650873    2.840940    0.249370
   2 O     8.0000    0    15.999   -5.542026    3.202226   -1.572766
   3 H     1.0000    0     1.008  -10.239711    4.438727   -0.939325
   4 H     1.0000    0     1.008  -12.751858    0.439944   -1.152816
   5 C     6.0000    0    12.011   -7.326300    1.556132   -0.982329
   6 H     1.0000    0     1.008   -6.087029    4.919766   -1.148513
   7 H     1.0000    0     1.008   -9.032581    3.571012    2.095527
   8 O     8.0000    0    15.999   -7.070661   -0.695922   -1.286281
   9 H     1.0000    0     1.008  -11.472358   -0.539046    1.866367

--------------------------------
INTERNAL COORDINATES (ANGSTROEM)
--------------------------------
 C      0   0   0     0.000000000000     0.00000000     0.00000000
 C      1   0   0     1.490036799661     0.00000000     0.00000000
 O      2   1   0     2.386192035444   142.75906680     0.00000000
 H      2   1   3     1.098938028321   109.78197676   114.35721555
 H      1   2   3     1.097820742525   115.96242486   297.04577933
 C      3   2   1     1.322082971698    36.96098977   347.64170492
 H      3   2   1     0.979615759139    73.34942569   166.02129822
 H      2   1   3     1.100330362575   110.08916897   234.11529724
 O      6   3   2     1.210125991383   122.52072565   183.11915165
 H      1   2   3     1.097766356691   116.01942367    70.20142047

---------------------------
INTERNAL COORDINATES (A.U.)
---------------------------
 C      0   0   0     0.000000000000     0.00000000     0.00000000
 C      1   0   0     2.815761480825     0.00000000     0.00000000
 O      2   1   0     4.509249449933   142.75906680     0.00000000
 H      2   1   3     2.076691911678   109.78197676   114.35721555
 H      1   2   3     2.074580547509   115.96242486   297.04577933
 C      3   2   1     2.498374742830    36.96098977   347.64170492
 H      3   2   1     1.851205501246    73.34942569   166.02129822
 H      2   1   3     2.079323042105   110.08916897   234.11529724
 O      6   3   2     2.286806711254   122.52072565   183.11915165
 H      1   2   3     2.074477773178   116.01942367    70.20142047

------------------------------------------------------------------------------
                   ___                                                        
                  /   \      - P O W E R E D   B Y -                         
                 /     \                                                     
                 |  |  |   _    _      __       _____    __    __             
                 |  |  |  | |  | |    /  \     |  _  \  |  |  /  |          
                  \  \/   | |  | |   /    \    | | | |  |  | /  /          
                 / \  \   | |__| |  /  /\  \   | |_| |  |  |/  /          
                |  |  |   |  __  | /  /__\  \  |    /   |      \           
                |  |  |   | |  | | |   __   |  |    \   |  |\   \          
                \     /   | |  | | |  |  |  |  | |\  \  |  | \   \       
                 \___/    |_|  |_| |__|  |__|  |_| \__\ |__|  \__/        
                                                                              
                      - O R C A' S   B I G   F R I E N D -                    
                                      &                                       
                       - I N T E G R A L  F E E D E R -                       
                                                                              
 v1 FN, 2020, v2 2021, v3 2022-2024                                           
------------------------------------------------------------------------------


----------------------
SHARK INTEGRAL PACKAGE
----------------------

Number of atoms                             ...     10
Number of basis functions                   ...    225
Number of shells                            ...     85
Maximum angular momentum                    ...      3
Integral batch strategy                     ... SHARK/LIBINT Hybrid
RI-J (if used) integral strategy            ... SPLIT-RIJ (Revised 2003 algorithm where possible)
Printlevel                                  ...      1
Contraction scheme used                     ... SEGMENTED contraction
Prescreening option                         ... SCHWARTZ
   Thresh                                   ... 2.500e-11
   Tcut                                     ... 2.500e-12
   Tpresel                                  ... 2.500e-12 
Coulomb Range Separation                    ... NOT USED
Exchange Range Separation                   ... NOT USED
Multipole approximations                    ... NOT USED
Finite Nucleus Model                        ... NOT USED
CABS basis                                  ... NOT available
Auxiliary Coulomb fitting basis             ... AVAILABLE
   # of basis functions in Aux-J            ...    300
   # of shells in Aux-J                     ...    100
   Maximum angular momentum in Aux-J        ...      4
Auxiliary J/K fitting basis                 ... NOT available
Auxiliary Correlation fitting basis         ... NOT available
Auxiliary 'external' fitting basis          ... NOT available

Checking pre-screening integrals            ... done (  0.0 sec) Dimension = 85
   => SHARK Basis and OBASIS are compatible. Storing Pre-screening
Shell pair information
Shell pair cut-off parameter TPreSel        ...   2.5e-12
Total number of shell pairs                 ...      3655
Shell pairs after pre-screening             ...      3501
Total number of primitive shell pairs       ...      9995
Primitive shell pairs kept                  ...      7764
          la=0 lb=0:    764 shell pairs
          la=1 lb=0:    963 shell pairs
          la=1 lb=1:    321 shell pairs
          la=2 lb=0:    567 shell pairs
          la=2 lb=1:    367 shell pairs
          la=2 lb=2:    115 shell pairs
          la=3 lb=0:    193 shell pairs
          la=3 lb=1:    123 shell pairs
          la=3 lb=2:     73 shell pairs
          la=3 lb=3:     15 shell pairs

Checking whether 4 symmetric matrices of dimension 225 fit in memory
:Max Core in MB      =  28672.00
 MB in use           =      8.07
 MB left             =  28663.93
 MB needed           =      0.78
 Data fit in memory  = YES
Calculating RI/J V-Matrix + Cholesky decomp.... done (  0.0 sec)
Calculating Nuclear repulsion               ... done (  0.0 sec) ENN=    169.923641238432 Eh

Diagonalization of the overlap matrix:
Smallest eigenvalue                        ... 2.667e-04
Time for diagonalization                   ...    0.006 sec
Threshold for overlap eigenvalues          ... 1.000e-07
Number of eigenvalues below threshold      ... 0
Time for construction of square roots      ...    0.002 sec
Total time needed                          ...    0.008 sec

-------------------
DFT GRID GENERATION
-------------------

General Integration Accuracy     IntAcc      ... 4.388
Radial Grid Type                 RadialGrid  ... OptM3 with GC (2021)
Angular Grid (max. ang.)         AngularGrid ... 4 (Lebedev-302)
Angular grid pruning method      GridPruning ... 4 (adaptive)
Weight generation scheme         WeightScheme... mBecke (2022)
Basis function cutoff            BFCut       ... 1.0000e-11
Integration weight cutoff        WCut        ... 1.0000e-14
Partially contracted basis set               ... off
Rotationally invariant grid construction     ... off
Angular grids for H and He will be reduced by one unit

Total number of grid points                  ...    46627
Total number of batches                      ...      733
Average number of points per batch           ...       63
Average number of grid points per atom       ...     4663
Grids setup in   0.3 sec
Initializing property integral containers    ... done (  0.0 sec)

SHARK setup successfully completed in   0.5 seconds

Maximum memory used throughout the entire STARTUP-calculation: 28.5 MB
Occupation numbers will be reassigned to an Aufbau configuration
             **** ENERGY FILE WAS UPDATED (3_fluoropropanoic_acid_defluorinated.en.tmp) ****
Finished Guess after   0.1 sec
Maximum memory used throughout the entire GUESS-calculation: 18.3 MB
--------------------
CPCM SOLVATION MODEL
--------------------
CPCM parameters:
  Epsilon                                         ...      78.3550
  Refrac                                          ...       1.3328
  Rsolv                                           ...       1.3000
  Surface type                                    ... GAUSSIAN VDW
  Discretization scheme                           ... Constant charge density
    Threshold for H atoms                         ...       5.0000 (charges/Ang^2)
    Threshold for non-H atoms                     ...       5.0000 (charges/Ang^2)
  Epsilon function type                           ...         CPCM
Solvent:                                          ... WATER
SMD-CDS solvent descriptors:
  Soln                                            ...       1.3328
  Soln25                                          ...       1.3323
  Sola                                            ...       0.0000
  Solb                                            ...       0.0000
  Solg                                            ...       0.0000
  Solc                                            ...       0.0000
  Solh                                            ...       0.0000
Radii:
  Scheme                                          ... Element-dependent radii
  Radius for C  used is    3.4960 Bohr (=   1.8500 Ang.)
  Radius for O  used is    2.8724 Bohr (=   1.5200 Ang.)
  Radius for H  used is    2.2677 Bohr (=   1.2000 Ang.)
Calculating surface                               ...        done! (  0.0s)
Cavity surface points                             ...          805
[...]
     27       0.413252  -0.244925  -0.325108  -0.105080   0.283527   0.297778
     28       0.098405  -0.049734  -0.074838  -0.019995   0.071222   0.115369
     29      -0.344339  -0.176946   0.175639   0.234762   0.571288  -0.455644
                 18         19         20         21         22         23    
      0      -0.058984  -0.003499  -0.020710   0.028633  -0.010911   0.263041
      1       0.059880  -0.024447  -0.038832   0.111552  -0.039832   0.186896
      2       0.028778   0.094500   0.014388  -0.017663  -0.013929  -0.047859
      3       0.029208  -0.034216   0.007631  -0.003781  -0.123124  -0.309280
      4      -0.041274  -0.015112   0.048628  -0.113206  -0.025064  -0.161791
      5       0.009559  -0.055346   0.000558  -0.018543   0.030245   0.039026
      6      -0.105034   0.012322  -0.095857  -0.001469  -0.014930  -0.005533
      7      -0.121246   0.003873   0.016985   0.020838  -0.007512  -0.004659
      8       0.129909  -0.012735   0.034657  -0.014958   0.009699  -0.000438
      9      -0.473000   0.128509   0.043134  -0.673183   0.349081   0.405367
     10      -0.116428   0.019203   0.058465  -0.233766   0.046820  -0.073122
     11       0.103308   0.389480   0.012105   0.303434  -0.095855  -0.044689
     12      -0.206047  -0.047226  -0.045121   0.029712   0.275276   0.048919
     13      -0.243397   0.064481  -0.070139   0.079821   0.663627  -0.452998
     14      -0.157958  -0.593320  -0.048041   0.026577   0.028244  -0.010321
     15       0.321334  -0.018256   0.081389  -0.048952   0.058679   0.065260
     16       0.080302   0.003278   0.025170  -0.005698   0.021897   0.015429
     17      -0.197178   0.028831  -0.064381   0.025903  -0.030042  -0.009681
     18      -0.409014  -0.039912   0.752619   0.247138   0.038615   0.060354
     19      -0.202418  -0.009061   0.260991   0.092333   0.011441   0.021319
     20       0.361887   0.027811  -0.522192  -0.185311  -0.012510  -0.020195
     21       0.014332   0.410883   0.026968   0.021708  -0.023032   0.068426
     22       0.117486   0.367084   0.063148   0.057049  -0.020547   0.008179
     23       0.018859  -0.020187  -0.013125  -0.032115   0.008558   0.218386
     24      -0.057845   0.002483   0.007430   0.014113  -0.004480  -0.010146
     25       0.068788  -0.003070  -0.058675  -0.027002  -0.007452   0.000027
     26      -0.022865  -0.001528   0.040861   0.012065   0.006200   0.000035
     27       0.184859  -0.020307  -0.188046   0.461103   0.566051  -0.560846
     28       0.098821  -0.022155  -0.067403   0.190001   0.048547   0.087151
     29      -0.132402  -0.387487  -0.038302   0.056100  -0.017239   0.083826
                 24         25         26         27         28         29    
      0       0.000757  -0.022572   0.047351  -0.003214  -0.066435  -0.000135
      1      -0.013344  -0.013848   0.045110   0.007535   0.076886   0.000331
      2       0.004924  -0.044203  -0.004924   0.000173   0.007280   0.000183
      3      -0.029739   0.014752  -0.003655   0.011751  -0.000044   0.000492
      4       0.032752   0.011447  -0.005202  -0.086324   0.005940  -0.000533
      5      -0.000417  -0.053678   0.000493   0.002750  -0.000236   0.000075
      6      -0.036534  -0.002472   0.000083   0.000236   0.000121  -0.028150
      7       0.040694   0.000721  -0.000016  -0.000051  -0.000070   0.051631
      8      -0.006972   0.000893  -0.000062  -0.000151  -0.000042  -0.021832
      9      -0.111556  -0.026708  -0.005834  -0.161191   0.007455  -0.000574
     10       0.014266   0.017599   0.016982   0.980125  -0.071339   0.002269
     11       0.036268   0.044769   0.000830  -0.016046   0.002512   0.000575
     12       0.046089  -0.007854  -0.615049   0.061790   0.685179   0.000014
     13       0.098035   0.029343   0.242957  -0.025869  -0.269435  -0.000773
     14       0.035116   0.037533   0.070202  -0.008655  -0.081401  -0.000969
     15       0.249973   0.001731  -0.000972  -0.001048   0.000401  -0.001629
     16      -0.565051  -0.005822   0.000472   0.000237   0.000387   0.002356
     17       0.276100   0.006102   0.000041   0.000878  -0.000231  -0.000721
     18       0.439107   0.008425   0.000177   0.002473  -0.000610   0.457877
     19       0.132480   0.001388   0.000614   0.003238   0.000782  -0.819474
     20      -0.320793  -0.005623  -0.000342  -0.004150  -0.000200   0.338888
     21       0.025429   0.122395  -0.002257   0.002723  -0.006104  -0.002320
     22       0.009079   0.021740  -0.001723  -0.002452   0.005381  -0.001612
     23      -0.103522   0.984871  -0.012885  -0.008706   0.000722  -0.001479
     24      -0.156755  -0.001262   0.000057  -0.000503   0.000096   0.000419
     25       0.353912   0.002197  -0.000290   0.000488  -0.000195  -0.001561
     26      -0.178721  -0.001341   0.000141  -0.000434   0.000087   0.000930
     27       0.035556   0.035570   0.111652   0.009206   0.097992   0.000287
     28      -0.015349  -0.018401  -0.735123  -0.025983  -0.652733  -0.000798
     29      -0.043363   0.039173  -0.006751   0.001546  -0.003535   0.000260


-----------
IR SPECTRUM
-----------

 Mode   freq       eps      Int      T**2         TX        TY        TZ
       cm**-1   L/(mol*cm) km/mol    a.u.
----------------------------------------------------------------------------
  6:     41.25   0.000560    2.83  0.004239  ( 0.008410  0.063395  0.012215)
  7:    263.33   0.005096   25.75  0.006040  (-0.076841 -0.010805 -0.004265)
  8:    334.84   0.007174   36.25  0.006686  ( 0.051967 -0.043938 -0.045329)
  9:    523.96   0.052162  263.60  0.031067  (-0.125224 -0.086305 -0.089093)
 10:    527.08   0.010089   50.98  0.005973  (-0.063628  0.016120  0.040802)
 11:    630.90   0.024118  121.88  0.011930  (-0.085424 -0.047322  0.048919)
 12:    640.10   0.001558    7.87  0.000759  ( 0.005751  0.026260  0.006060)
 13:    772.59   0.000648    3.27  0.000262  ( 0.012010 -0.009319 -0.005535)
 14:    805.54   0.005281   26.69  0.002046  ( 0.009802  0.032132 -0.030287)
 15:    984.87   0.005719   28.90  0.001812  ( 0.018722 -0.028405 -0.025590)
 16:   1036.19   0.006778   34.25  0.002041  ( 0.033329 -0.020710  0.022398)
 17:   1073.52   0.007006   35.41  0.002037  ( 0.010792 -0.016818 -0.040464)
 18:   1157.07   0.032265  163.05  0.008702  ( 0.056834  0.041074 -0.061520)
 19:   1168.18   0.003374   17.05  0.000901  (-0.028634 -0.008790 -0.002048)
 20:   1257.79   0.097386  492.15  0.024162  ( 0.083170  0.081850 -0.102691)
 21:   1285.75   0.000753    3.80  0.000183  ( 0.003975  0.012413  0.003576)
 22:   1384.68   0.017622   89.05  0.003971  ( 0.043029  0.039417 -0.023794)
 23:   1504.67   0.001207    6.10  0.000250  ( 0.009322 -0.000127  0.012780)
 24:   1723.37   0.082869  418.79  0.015006  ( 0.041961 -0.101461  0.054321)
 25:   2130.94   0.023267  117.58  0.003407  ( 0.004143  0.000776  0.058219)
 26:   3081.32   0.002459   12.43  0.000249  (-0.012482 -0.009643  0.000523)
 27:   3107.35   0.004512   22.80  0.000453  (-0.002904  0.021084 -0.000368)
 28:   3196.55   0.008543   43.17  0.000834  ( 0.020075 -0.020636 -0.002266)
 29:   3609.76   0.048524  245.22  0.004195  ( 0.008350 -0.055425  0.032455)

* The epsilon (eps) is given for a Dirac delta lineshape.
** The dipole moment derivative (T) already includes vibrational overlap.

The first frequency considered to be a vibration is 6
The total number of vibrations considered is 24


--------------------------
THERMOCHEMISTRY AT 298.15K
--------------------------

Temperature         ...   298.15 K
Pressure            ...     1.00 atm
Total Mass          ...    73.07 AMU
Quasi RRHO          ...     True
Cut-Off Frequency   ...     1.00 cm^-1

Throughout the following assumptions are being made:
  (1) The electronic state is orbitally nondegenerate
  (2) There are no thermally accessible electronically excited states
  (3) Hindered rotations indicated by low frequency modes are not
      treated as such but are treated as vibrations and this may
      cause some error
  (4) All equations used are the standard statistical mechanics
      equations for an ideal gas
  (5) All vibrations are strictly harmonic

freq.      41.25  E(vib)   ...       0.54 
freq.     263.33  E(vib)   ...       0.29 
freq.     334.84  E(vib)   ...       0.24 
freq.     523.96  E(vib)   ...       0.13 
freq.     527.08  E(vib)   ...       0.13 
freq.     630.90  E(vib)   ...       0.09 
freq.     640.10  E(vib)   ...       0.09 
freq.     772.59  E(vib)   ...       0.05 
freq.     805.54  E(vib)   ...       0.05 
freq.     984.87  E(vib)   ...       0.02 
freq.    1036.19  E(vib)   ...       0.02 
freq.    1073.52  E(vib)   ...       0.02 
freq.    1157.07  E(vib)   ...       0.01 
freq.    1168.18  E(vib)   ...       0.01 
freq.    1257.79  E(vib)   ...       0.01 
freq.    1285.75  E(vib)   ...       0.01 
freq.    1384.68  E(vib)   ...       0.00 
freq.    1504.67  E(vib)   ...       0.00 
freq.    1723.37  E(vib)   ...       0.00 
freq.    2130.94  E(vib)   ...       0.00 
freq.    3081.32  E(vib)   ...       0.00 
freq.    3107.35  E(vib)   ...       0.00 
freq.    3196.55  E(vib)   ...       0.00 
freq.    3609.76  E(vib)   ...       0.00 

------------
INNER ENERGY
------------

The inner energy is: U= E(el) + E(ZPE) + E(vib) + E(rot) + E(trans)
    E(el)   - is the total energy from the electronic structure calculation
              = E(kin-el) + E(nuc-el) + E(el-el) + E(nuc-nuc)
    E(ZPE)  - the the zero temperature vibrational energy from the frequency calculation
    E(vib)  - the the finite temperature correction to E(ZPE) due to population
              of excited vibrational states
    E(rot)  - is the rotational thermal energy
    E(trans)- is the translational thermal energy

Summary of contributions to the inner energy U:
Electronic energy                ...   -267.35344480 Eh
Zero point energy                ...      0.07345172 Eh      46.09 kcal/mol
Thermal vibrational correction   ...      0.00273595 Eh       1.72 kcal/mol
Thermal rotational correction    ...      0.00141627 Eh       0.89 kcal/mol
Thermal translational correction ...      0.00141627 Eh       0.89 kcal/mol
-----------------------------------------------------------------------
Total thermal energy                   -267.27442458 Eh


Summary of corrections to the electronic energy:
(perhaps to be used in another calculation)
Total thermal correction                  0.00556850 Eh       3.49 kcal/mol
Non-thermal (ZPE) correction              0.07345172 Eh      46.09 kcal/mol
-----------------------------------------------------------------------
Total correction                          0.07902022 Eh      49.59 kcal/mol


--------
ENTHALPY
--------

The enthalpy is H = U + kB*T
                kB is Boltzmann's constant
Total thermal energy              ...   -267.27442458 Eh 
Thermal Enthalpy correction       ...      0.00094421 Eh       0.59 kcal/mol
-----------------------------------------------------------------------
Total Enthalpy                    ...   -267.27348037 Eh


Note: Only C1 symmetry has been detected, increase convergence thresholds 
      if your molecule has a higher symmetry. Symmetry factor of 1.0 is   
      used for the rotational entropy correction. 
 

Note: Rotational entropy computed according to Herzberg 
Infrared and Raman Spectra, Chapter V,1, Van Nostrand Reinhold, 1945 
Point Group:  C1, Symmetry Number:   1  
Rotational constants in cm-1:     0.332146     0.135050     0.100964 

Vibrational entropy computed according to the QRRHO of S. Grimme
Chem.Eur.J. 2012 18 9955 using a reference frequency of 100.0 cm-1


-------
ENTROPY
-------

The entropy contributions are T*S = T*(S(el)+S(vib)+S(rot)+S(trans))
     S(el)   - electronic entropy
     S(vib)  - vibrational entropy
     S(rot)  - rotational entropy
     S(trans)- translational entropy
The entropies will be listed as multiplied by the temperature to get
units of energy

Electronic entropy                ...      0.00000000 Eh      0.00 kcal/mol
Vibrational entropy               ...      0.00452212 Eh      2.84 kcal/mol
Rotational entropy                ...      0.01205882 Eh      7.57 kcal/mol
Translational entropy             ...      0.01842690 Eh     11.56 kcal/mol
-----------------------------------------------------------------------
Final entropy term                ...      0.03500783 Eh     21.97 kcal/mol

In case the symmetry of your molecule has not been determined correctly
or in case you have a reason to use a different symmetry number we print 
out the resulting rotational entropy values for sn=1,12:

 non-linear molecules -----------------------------------
|  sn= 1 | S(rot)=       0.01205882 Eh      7.57 kcal/mol|
|  sn= 2 | S(rot)=       0.01140436 Eh      7.16 kcal/mol|
|  sn= 3 | S(rot)=       0.01102153 Eh      6.92 kcal/mol|
|  sn= 4 | S(rot)=       0.01074990 Eh      6.75 kcal/mol|
|  sn= 5 | S(rot)=       0.01053922 Eh      6.61 kcal/mol|
|  sn= 6 | S(rot)=       0.01036707 Eh      6.51 kcal/mol|
|  sn= 7 | S(rot)=       0.01022153 Eh      6.41 kcal/mol|
|  sn= 8 | S(rot)=       0.01009545 Eh      6.33 kcal/mol|
|  sn= 9 | S(rot)=       0.00998424 Eh      6.27 kcal/mol|
|  sn=10 | S(rot)=       0.00988476 Eh      6.20 kcal/mol|
|  sn=11 | S(rot)=       0.00979477 Eh      6.15 kcal/mol|
|  sn=12 | S(rot)=       0.00971261 Eh      6.09 kcal/mol|
 linear molecules ---------------------------------------
|  Dinfh | S(rot)=       0.00749081 Eh      4.70 kcal/mol|
|  Cinfv | S(rot)=       0.00814527 Eh      5.11 kcal/mol|
 --------------------------------------------------------


-------------------
GIBBS FREE ENERGY
-------------------

The Gibbs free energy is G = H - T*S

Total enthalpy                    ...   -267.27348037 Eh 
Total entropy correction          ...     -0.03500783 Eh    -21.97 kcal/mol
-----------------------------------------------------------------------
Final Gibbs free energy         ...   -267.30848820 Eh

For completeness - the Gibbs free energy minus the electronic energy
G-E(el)                           ...      0.04495659 Eh     28.21 kcal/mol


Maximum memory used throughout the entire PROP-calculation: 43.8 MB

--------------------------------
SUGGESTED CITATIONS FOR THIS RUN
--------------------------------

Below you find a list of papers that are relevant to this ORCA run
We neither can nor want to force you to cite these papers, but we appreciate if you do
You receive ORCA, which is the product of decades of hard work by many enthusiastic individuals, for free
The only thing we kindly ask in return is that you cite our papers,
We deeply appreciate it, if you show your appreciation for ORCA by not just citing the generic ORCA reference.

Please note that relegating all ORCA citations to the supporting information does *not* help us.
SI sections are not indexed - citations you put there will not count into any citation statistics
But we need these citations in order to attract the funding resources that allow us to do what we are doing

Therefore, if you are a happy ORCA user, please consider citing a few of the papers listed below in the main body of your paper

In addition to the list printed below, the program has created the file 3_fluoropropanoic_acid_defluorinated.bibtex that contains the list in bibtex format
You can import this file easily into all common literature databanks and citation aid programs


List of essential papers. We consider these as the minimum necessary citations

  1. Neese, F.
     Software update: the ORCA program system, version 6.0
     WIRES Comput. Molec. Sci. 2025 15(1), e70019
     doi.org/10.1002/wcms.7019

List of papers to cite with high priority. The work reported in these papers was absolutely
necessary for this run to complete.
Our perspective: the developers of density functionals and basis sets usually get cited in chemistry papers
Good! But without the algorithms to do something with them, the functionals or basis sets would not do anything.
Hence, in our opinion, the algorithm design and method developments papers are equally worthy of getting cited

  1. Neese, F.
     An improvement of the resolution of the identity approximation for the formation of the Coulomb matrix
     J. Comp. Chem. 2003 24(14), 1740-1747
     doi.org/10.1002/jcc.10318
  2. Bykov, D.; Petrenko, T.; Izsak, R.; Kossmann, S.; Becker, U.; Valeev, E.; Neese, F.
     Efficient implementation of the analytic second derivatives of Hartree-Fock and hybrid DFT energies: a detailed analysis of different approximations
     Molec. Phys. 2015 113 , 1961-1977
     doi.org/10.1080/00268976.2015.1025114
  3. Caldeweyher, E.; Bannwarth, C.; Grimme, S.
     Extension of the D3 dispersion coefficient model
     J. Chem. Phys. 2017 147 , 034112
     doi.org/10.1063/1.4993215
  4. Caldeweyher, E.; Ehlert, S.; Hansen, A.; Neugebauer, H.; Spicher, S.; Bannwarth, C.; Grimme, S.
     A generally applicable atomic-charge dependent London dispersion correction
     J. Chem. Phys. 2019 150 , 154122
     doi.org/10.1063/1.5090222
  5. Garcia-Rates, M.; Neese, F.
     Efficient implementation of the analytical second derivatives of hartree-fock and hybrid DFT energies within the framework of the conductor-like polarizable continuum model
     J. Comput. Chem. 2019 40 , 1816-1828
     doi.org/10.1002/jcc.25833
  6. Caldeweyher, E.; Mewes, J.; Ehlert, S.; Grimme, S.
     Extension and evaluation of the D4 London-dispersion model for periodic systems
     Phys. Chem. Chem. Phys. 2020 22(16), 8499-8512
     doi.org/10.1039/D0CP00502A
  7. Garcia-Rates, M.; Neese, F.
     Effect of the Solute Cavity on the Solvation Energy and its Derivatives within the Framework of the Gaussian Charge Scheme
     J. Comput. Chem. 2020 41 , 922-939
     doi.org/10.1002/jcc.26139
  8. Neese, F.
     The SHARK Integral Generation and Digestion System
     J. Comp. Chem. 2022 44(3), 381
     doi.org/10.1002/jcc.26942
  9. Wittmann, L.; Gordiy, I.; Friede, M.; Helmich-Paris, B.; Grimme, S.; Hansen, A.; Bursch, M.
     Extension of the D3 and D4 London Dispersion Corrections to the full Actinides Series
     Phys. Chem. Chem. Phys. 2024 26(32), 21379-21394
     doi.org/10.1039/D4CP01514B

List of suggested additional citations. These are papers that are important in the 'surrounding' of 
of this run, or papers that preceded the highly important papers. If you like your results we are grateful for a citation.

  1. Neese, F.
     The ORCA program system
     WIRES Comput. Molec. Sci. 2012 2(1), 73-78
     doi.org/10.1002/wcms.81
  2. Neese, F.
     Software update: the ORCA program system, version 4.0
     WIRES Comput. Molec. Sci. 2018 8(1), 1-6
     doi.org/10.1002/wcms.1327
  3. Neese, F.; Wennmohs, F.; Becker, U.; Riplinger, C.
     The ORCA quantum chemistry program package
     J. Chem. Phys. 2020 152(22), 224108
     doi.org/10.1063/5.0004608
  4. Neese, F.
     Software update: The ORCA program system—Version 5.0
     WIRES Comput. Molec. Sci. 2022 12(1), e1606
     doi.org/10.1002/wcms.1606

List of optional additional citations

  1. Neese, F.
     Approximate second-order SCF convergence for spin unrestricted wavefunctions
     Chem. Phys. Lett. 2000 325(1-3), 93-98
     doi.org/10.1016/s0009-2614(00)00662-x

Timings for individual modules:

Sum of individual times          ...      927.291 sec (=  15.455 min)
Startup calculation              ...       21.478 sec (=   0.358 min)   2.3 %
SCF iterations                   ...      479.380 sec (=   7.990 min)  51.7 %
Property integrals               ...       84.785 sec (=   1.413 min)   9.1 %
SCF Response                     ...       43.986 sec (=   0.733 min)   4.7 %
Property calculations            ...       44.660 sec (=   0.744 min)   4.8 %
SCF Gradient evaluation          ...      252.560 sec (=   4.209 min)  27.2 %
Geometry relaxation              ...        0.444 sec (=   0.007 min)   0.0 %
                             ****ORCA TERMINATED NORMALLY****
TOTAL RUN TIME: 0 days 0 hours 15 minutes 32 seconds 320 msec
