
                                 *****************
                                 * O   R   C   A *
                                 *****************

                                            #,                                       
                                            ###                                      
                                            ####                                     
                                            #####                                    
                                            ######                                   
                                           ########,                                 
                                     ,,################,,,,,                         
                               ,,#################################,,                 
                          ,,##########################################,,             
                       ,#########################################, ''#####,          
                    ,#############################################,,   '####,        
                  ,##################################################,,,,####,       
                ,###########''''           ''''###############################       
              ,#####''   ,,,,##########,,,,          '''####'''          '####       
            ,##' ,,,,###########################,,,                        '##       
           ' ,,###''''                  '''############,,,                           
         ,,##''                                '''############,,,,        ,,,,,,###''
      ,#''                                            '''#######################'''  
     '                                                          ''''####''''         
             ,#######,   #######,   ,#######,      ##                                
            ,#'     '#,  ##    ##  ,#'     '#,    #''#        ,####,    ,#,          
            ##       ##  ##   ,#'  ##            #'  '#       #'       ,# #          
            ##       ##  #######   ##           ,######,      #####,      #          
            '#,     ,#'  ##    ##  '#,     ,#' ,#      #,     #,   #      #          
             '#######'   ##     ##  '#######'  #'      '#     '####' #    #          



                #########################################################
                #                        -***-                          #
                #          Department of theory and spectroscopy        #
                #                                                       #
                #                      Frank Neese                      #
                #                                                       #
                #     Directorship, Architecture, Infrastructure        #
                #                    SHARK, DRIVERS                     #
                #        Core code/Algorithms in most modules           #
                #                                                       #
                #        Max Planck Institute fuer Kohlenforschung      #
                #                Kaiser Wilhelm Platz 1                 #
                #                 D-45470 Muelheim/Ruhr                 #
                #                      Germany                          #
                #                                                       #
                #                  All rights reserved                  #
                #                        -***-                          #
                #########################################################


                         Program Version 6.1.0  -  RELEASE   -
                                (GIT: $679e74b$)
                          ($2025-06-10 18:02:51 +0200$)


 With contributions from (in alphabetic order):
[Max-Planck-Institut fuer Kohlenforschung]                               
  Daniel Aravena         : Magnetic Suceptibility                        
  Michael Atanasov       : Ab Initio Ligand Field Theory (pilot matlab implementation)
  Alexander A. Auer      : GIAO ZORA, VPT2 properties, NMR spectrum      
  Ute Becker             : All parallelization in ORCA, NUMFREQ, NUMCALC 
  Giovanni Bistoni       : ED, misc. LED, open-shell LED, HFLD           
  Dmytro Bykov           : pre 5.0 version of the SCF Hessian            
  Marcos Casanova-Páez   : Triplet and SCS-CIS(D). UHF-(DLPNO)-IP/EA/STEOM-CCSD. UHF-CVS-IP/STEOM-CCSD   
  Vijay G. Chilkuri      : MRCI spin determinant printing, contributions to CSF-ICE 
  Pauline Colinet        : FMM embedding                                 
  Dipayan Datta          : RHF DLPNO-CCSD density                        
  Achintya Kumar Dutta   : EOM-CC, STEOM-CC                              
  Nicolas Foglia         : Exact transition moments, OPA infrastructure, MCD improvements    
  Dmitry Ganyushin       : Spin-Orbit,Spin-Spin,Magnetic field MRCI      
  Miquel Garcia-Rates    : C-PCM and meta-GGA Hessian, CCSD/C-PCM, Gaussian charge scheme 
  Tiago L. C. Gouveia    : GS-ROHF, GS-ROCIS                             
  Yang Guo               : DLPNO-NEVPT2, F12-NEVPT2, CIM, IAO-localization        
  Andreas Hansen         : Spin unrestricted coupled pair/coupled cluster methods 
  Ingolf Harden          : AUTO-CI MPn and infrastructure                
  Benjamin Helmich-Paris : MC-RPA, TRAH-(SCF,CASSCF), AVAS, COSX integrals, SCF dyn. polar., MC-PDFT, srDFT 
  Lee Huntington         : MR-EOM, pCC                                   
  Robert Izsak           : Overlap fitted RIJCOSX, COSX-SCS-MP3, EOM     
  Riya Kayal             : Wick's Theorem for AUTO-CI, AUTO-CI UHF-CCSDT 
  Emily Kempfer          : AUTO-CI RHF CISDT and CCSDT, approximate NEVPT4
  Christian Kollmar      : KDIIS, OOCD, Brueckner-CCSD(T), CCSD density, CASPT2, CASPT2-K, improved NEVPT2 
  Axel Koslowski         : Symmetry handling                             
  Simone Kossmann        : meta-GGA functionals, TD-DFT gradient, OOMP2, (MP2 Hessian; deprecated post 5.0) 
  Lucas Lang             : DCDCAS, Hyperfine gauge corrections, ICE-SOC+SSC
  Marvin Lechner         : AUTO-CI (C++ implementation), FIC-MRCC        
  Spencer Leger          : CASSCF response                               
  Dagmar Lenk            : GEPOL surface, SMD, ORCA-2-JSON               
  Dimitrios Liakos       : Extrapolation schemes; Compound Job, Property file
  Dimitrios Manganas     : Further ROCIS development; embedding schemes. LFT, Crystal Embedding 
  Dimitrios Pantazis     : SARC Basis sets                               
  Anastasios Papadopoulos: AUTO-CI, single reference methods and gradients 
  Taras Petrenko         : pre 6.0 DFT Hessian and TD-DFT gradient,  ECA, NRVS 
  Petra Pikulova         : Analytic Raman intensities                    
  Peter Pinski           : DLPNO-MP2, DLPNO-MP2 Gradient                 
  Shashank Vittal Rao    : ES-AILFT, MagRelax                            
  Christoph Reimann      : Effective Core Potentials                     
  Marius Retegan         : Local ZFS, SOC                                
  Christoph Riplinger    : Optimizer, TS searches, QM/MM, DLPNO-CCSD(T), (RO)-DLPNO pert. Triples 
  Michael Roemelt        : Original ROCIS implementation, recursive CI coupling coefficients
  Masaaki Saitow         : Open-shell DLPNO-CCSD energy and density      
  Barbara Sandhoefer     : DKH picture change effects                    
  Yorick L. A. Schmerwitz: GMF and freeze-and-release deltaSCF, NEB S-IDPP initial path                    
  Kantharuban Sivalingam : CASSCF convergence/infrastructure, NEVPT2, NEVPT3, NEVPT4(SD), FIC-MRCI and CEPA variants
  Bernardo de Souza      : ESD, SOC TD-DFT                               
  Georgi L. Stoychev     : AutoAux, RI-MP2 NMR, DLPNO-MP2 response, X2C  
  Van Anh Tran           : RI-MP2 g-tensors                              
  Willem Van den Heuvel  : Paramagnetic NMR                              
  Zikuan Wang            : NOTCH, Electric field optimization            
  Frank Wennmohs         : Technical directorship and infrastructure     
  Hang Xu                : AUTO-CI-Response properties                   
                                                                         
[FACCTs GmbH]                                                            
  Markus Bursch, Nicolas Foglia, Miquel Garcia-Rates, Ingolf Harden, Hagen Neugebauer, Anastasios Papadopoulos, 
  Christoph Riplinger, Bernardo de Souza, Georgi L. Stoychev                                                    
                                                                 
  APM, various basis sets, CI-OPT, improved COSX, DLPNO-Multilevel,           
  DOCKER, DRACO, updates on ESD, Fragmentator, GOAT, IRC, LR-CPCM, L-BFGS, MBIS, meta-GGA TD-DFT gradient, ML-optimized integration grids, 
  MM, NACMEs, nearIR, NEB, NEB-TS, NL-DFT gradient (VV10), 2- and 3-layer-ONIOM, interface openCOSMO-RS, QMMM,   
  Crystal-QMMM, RESP, rigid body optimization, SF, symmetry and pop. for TD-DFT, various functionals, SOLVATOR                                   
                                                                         
[Other institutions]                                                     
  V. Asgeirsson          : NEB                                           
  Christoph Bannwarth    : sTDA-DFT, sTD-DFT, PBEh-3c, B97-3c, D3        
  Giovanni Bistoni       : ETS/NOCV, ADLD/ADEX, COVALED                  
  Martin Brehm           : Molecular dynamics                            
  Ronald Cardenas        : ETS/NOCV                                      
  Martina Colucci        : COVALED                                       
  Sebastian Ehlert       : rSCAN, r2SCAN, r2SCAN-3c, D4, dhf basis sets  
  Marvin Friede          : D4 for Fr, Ra, Ac-Lr                          
  Lars Goerigk           : TD-DFT with DH, B97 family of functionals     
  Stefan Grimme          : VdW corrections, initial TS optimization, DFT functionals, gCP, sTDA/sTD-DF 
  Waldemar Hujo          : DFT-NL                                        
  H. Jonsson             : NEB                                           
  Holger Kruse           : gCP                                           
  Marcel Mueller         : wB97X-3c, vDZP basis set                      
  Hagen Neugebauer       : wr2SCAN, Native XTB                           
  Gianluca Regni         : ADLD/ADEX                                     
  Tobias Risthaus        : pre 6.0 range-separated hybrid DFT and stability analysis
  Lukas Wittmann         : regularized MP2, r2SCAN double-hybrids, wr2SCAN        
                                                                         
We gratefully acknowledge several colleagues who have allowed us to      
interface, adapt or use parts of their codes:                            
  Ed Valeev, F. Pavosevic, A. Kumar             : LibInt (2-el integral package), F12 methods 
  Garnet Chan, S. Sharma, J. Yang, R. Olivares  : DMRG                   
  Ulf Ekstrom                                   : XCFun DFT Library      
  Mihaly Kallay                                 : mrcc  (arbitrary order and MRCC methods)
  Frank Weinhold                                : gennbo (NPA and NBO analysis)           
  Simon Mueller                                 : openCOSMO-RS                            
  Christopher J. Cramer and Donald G. Truhlar   : smd solvation model                     
  S Lehtola, MJT Oliveira, MAL Marques          : LibXC Library                           
  Liviu Ungur et al                             : ANISO software                          


 Your calculation uses the libint2 library for the computation of 2-el integrals
 For citations please refer to: http://libint.valeyev.net

 Your ORCA version has been built with support for libXC version: 7.0.0
 For citations please refer to: https://libxc.gitlab.io

 This ORCA versions uses:
   CBLAS   interface :  Fast vector & matrix operations
   LAPACKE interface :  Fast linear algebra routines
   SCALAPACK package :  Parallel linear algebra routines
   Shared memory     :  Shared parallel matrices
   BLAS/LAPACK       :  OpenBLAS 0.3.29  USE64BITINT DYNAMIC_ARCH NO_AFFINITY Zen SINGLE_THREADED
        Core in use  :  Zen
   Copyright (c) 2011-2014, The OpenBLAS Project


  ***********************************
  * Starting time: Fri Nov 21 16:59:33 2025
  * Host name:     twstudio
  * Process ID:    81546
  * Working dir.:  /mnt/sda3/data1/Studium-PC/PFAS-Breaker/C-F-Bonds_Gibbs/Solvation
  ***********************************

Your calculation utilizes the atom-pairwise dispersion correction
based on EEQ partial charges (D4)


Your calculation utilizes the SMD solvation module
Please cite in your paper:
Marenich, A. V.; Cramer, C. J.; Truhlar, D. G. J. Phys. Chem. B 2009, 113, 6378 

Warning: RI is on but no J-basis has been assigned. Assigning Def2/J (nothing to worry about!)
================================================================================

----- Orbital basis set information -----
Your calculation utilizes the basis: def2-TZVPP
   F. Weigend and R. Ahlrichs, Phys. Chem. Chem. Phys. 7, 3297 (2005).

----- AuxJ basis set information -----
Your calculation utilizes the auxiliary basis: def2/J
   H-Rn: F. Weigend, Phys. Chem. Chem. Phys. 8, 1057 (2006).
   Fr-Lr: K. Eichkorn, F. Weigend, O. Treutler, R. Ahlrichs; Theor. Chem. Acc. 97, 119 (1997).

================================================================================
                                        WARNINGS
                       Please study these warnings very carefully!
================================================================================


================================================================================
                                       INPUT FILE
================================================================================
NAME = fluorine-elem-aqueous.inp
|  1> !PBE D4 def2-TZVPP FREQ SMD(WATER)
|  2> 
|  3> %scf
|  4> MaxCore 28672
|  5> end
|  6> 
|  7> * xyz 0 1
|  8> F     -3.09510    0.51025    0.00000
|  9> F     -2.35080   -0.29971    0.00001
| 10> *
| 11> 
| 12>                          ****END OF INPUT****
================================================================================

                       ****************************
                       * Single Point Calculation *
                       ****************************

---------------------------------
CARTESIAN COORDINATES (ANGSTROEM)
---------------------------------
  F     -3.095100    0.510250    0.000000
  F     -2.350800   -0.299710    0.000010

----------------------------
CARTESIAN COORDINATES (A.U.)
----------------------------
  NO LB      ZA    FRAG     MASS         X           Y           Z
   0 F     9.0000    0    18.998   -5.848891    0.964233    0.000000
   1 F     9.0000    0    18.998   -4.442368   -0.566370    0.000019

--------------------------------
INTERNAL COORDINATES (ANGSTROEM)
--------------------------------
 F      0   0   0     0.000000000000     0.00000000     0.00000000
 F      1   0   0     1.100008041652     0.00000000     0.00000000

---------------------------
INTERNAL COORDINATES (A.U.)
---------------------------
 F      0   0   0     0.000000000000     0.00000000     0.00000000
 F      1   0   0     2.078713943834     0.00000000     0.00000000

---------------------
BASIS SET INFORMATION
---------------------
There are 1 groups of distinct atoms

 Group   1 Type F   : 11s6p2d1f contracted to 5s3p2d1f pattern {62111/411/11/1}

Atom   0F    basis set group =>   1
Atom   1F    basis set group =>   1
---------------------------------
AUXILIARY/J BASIS SET INFORMATION
---------------------------------
There are 1 groups of distinct atoms

 Group   1 Type F   : 12s5p4d2f1g contracted to 6s4p3d1f1g pattern {711111/2111/211/2/1}

Atom   0F    basis set group =>   1
Atom   1F    basis set group =>   1
------------------------------------------------------------------------------
                             ORCA STARTUP CALCULATIONS
                           -- RI-GTO INTEGRALS CHOSEN --
------------------------------------------------------------------------------
------------------------------------------------------------------------------
                   ___                                                        
                  /   \      - P O W E R E D   B Y -                         
                 /     \                                                     
                 |  |  |   _    _      __       _____    __    __             
                 |  |  |  | |  | |    /  \     |  _  \  |  |  /  |          
                  \  \/   | |  | |   /    \    | | | |  |  | /  /          
                 / \  \   | |__| |  /  /\  \   | |_| |  |  |/  /          
                |  |  |   |  __  | /  /__\  \  |    /   |      \           
                |  |  |   | |  | | |   __   |  |    \   |  |\   \          
                \     /   | |  | | |  |  |  |  | |\  \  |  | \   \       
                 \___/    |_|  |_| |__|  |__|  |_| \__\ |__|  \__/        
                                                                              
                      - O R C A' S   B I G   F R I E N D -                    
                                      &                                       
                       - I N T E G R A L  F E E D E R -                       
                                                                              
 v1 FN, 2020, v2 2021, v3 2022-2024                                           
------------------------------------------------------------------------------


----------------------
SHARK INTEGRAL PACKAGE
----------------------

Number of atoms                             ...      2
Number of basis functions                   ...     62
Number of shells                            ...     22
Maximum angular momentum                    ...      3
Integral batch strategy                     ... SHARK/LIBINT Hybrid
RI-J (if used) integral strategy            ... SPLIT-RIJ (Revised 2003 algorithm where possible)
Printlevel                                  ...      1
Contraction scheme used                     ... SEGMENTED contraction
Prescreening option                         ... SCHWARTZ
   Thresh                                   ... 1.000e-10
   Tcut                                     ... 1.000e-11
   Tpresel                                  ... 1.000e-11 
Coulomb Range Separation                    ... NOT USED
Exchange Range Separation                   ... NOT USED
Multipole approximations                    ... NOT USED
Finite Nucleus Model                        ... NOT USED
CABS basis                                  ... NOT available
Auxiliary Coulomb fitting basis             ... AVAILABLE
   # of basis functions in Aux-J            ...     98
   # of shells in Aux-J                     ...     30
   Maximum angular momentum in Aux-J        ...      4
Auxiliary J/K fitting basis                 ... NOT available
Auxiliary Correlation fitting basis         ... NOT available
Auxiliary 'external' fitting basis          ... NOT available

Checking pre-screening integrals            ... done (  0.0 sec) Dimension = 22
   => SHARK Basis and OBASIS are compatible. Storing Pre-screening
Shell pair information
Shell pair cut-off parameter TPreSel        ...   1.0e-11
Total number of shell pairs                 ...       253
Shell pairs after pre-screening             ...       252
Total number of primitive shell pairs       ...       864
Primitive shell pairs kept                  ...       781
          la=0 lb=0:     54 shell pairs
          la=1 lb=0:     60 shell pairs
          la=1 lb=1:     21 shell pairs
          la=2 lb=0:     40 shell pairs
          la=2 lb=1:     24 shell pairs
          la=2 lb=2:     10 shell pairs
          la=3 lb=0:     20 shell pairs
          la=3 lb=1:     12 shell pairs
          la=3 lb=2:      8 shell pairs
          la=3 lb=3:      3 shell pairs

Checking whether 4 symmetric matrices of dimension 62 fit in memory
:Max Core in MB      =  28672.00
 MB in use           =      3.50
 MB left             =  28668.50
 MB needed           =      0.06
 Data fit in memory  = YES
Calculating RI/J V-Matrix + Cholesky decomp.... done (  0.0 sec)
Calculating Nuclear repulsion               ... done (  0.0 sec) ENN=     38.966400470956 Eh

Diagonalization of the overlap matrix:
Smallest eigenvalue                        ... 3.013e-03
Time for diagonalization                   ...    0.000 sec
Threshold for overlap eigenvalues          ... 1.000e-07
Number of eigenvalues below threshold      ... 0
Time for construction of square roots      ...    0.000 sec
Total time needed                          ...    0.001 sec

-------------------
DFT GRID GENERATION
-------------------

General Integration Accuracy     IntAcc      ... 4.388
Radial Grid Type                 RadialGrid  ... OptM3 with GC (2021)
Angular Grid (max. ang.)         AngularGrid ... 4 (Lebedev-302)
Angular grid pruning method      GridPruning ... 4 (adaptive)
Weight generation scheme         WeightScheme... mBecke (2022)
Basis function cutoff            BFCut       ... 1.0000e-10
Integration weight cutoff        WCut        ... 1.0000e-14
Partially contracted basis set               ... off
Rotationally invariant grid construction     ... off
Angular grids for H and He will be reduced by one unit

Total number of grid points                  ...    12266
Total number of batches                      ...      192
Average number of points per batch           ...       63
Average number of grid points per atom       ...     6133
Grids setup in   0.0 sec
Initializing property integral containers    ... done (  0.0 sec)

SHARK setup successfully completed in   0.1 seconds

Maximum memory used throughout the entire STARTUP-calculation: 13.8 MB
-------------------------------------------------------------------------------
                                 ORCA GUESS
                   Start orbitals & Density for SCF / CASSCF
-------------------------------------------------------------------------------

------------
SCF SETTINGS
------------
Hamiltonian:
 Density Functional     Method          .... DFT(GTOs)
 Exchange Functional    Exchange        .... PBE
   PBE kappa parameter   XKappa         ....  0.804000
   PBE mue parameter    XMuePBE         ....  0.219520
 Correlation Functional Correlation     .... PBE
   PBE beta parameter  CBetaPBE         ....  0.066725
 LDA part of GGA corr.  LDAOpt          .... PW91-LDA
 Gradients option       PostSCFGGA      .... off
   NL short-range parameter             ....  6.400000
 RI-approximation to the Coulomb term is turned on
   Number of AuxJ basis functions       .... 98


General Settings:
 Integral files         IntName         .... fluorine-elem-aqueous
 Hartree-Fock type      HFTyp           .... RHF
 Total Charge           Charge          ....    0
 Multiplicity           Mult            ....    1
 Number of Electrons    NEL             ....   18
 Basis Dimension        Dim             ....   62
 Nuclear Repulsion      ENuc            ....     38.9664004710 Eh

Convergence Acceleration:
 AO-DIIS                CNVDIIS         .... on
   Start iteration      DIISMaxIt       ....    12
   Startup error        DIISStart       ....  0.200000
   # of expansion vecs  DIISMaxEq       ....     5
   Bias factor          DIISBfac        ....   1.050
   Max. coefficient     DIISMaxC        ....  10.000
 MO-DIIS                CNVKDIIS        .... off
 Trust-Rad. Augm. Hess. CNVTRAH         .... auto
   Auto Start mean grad. ratio tolernc. ....  1.125000
   Auto Start start iteration           ....    50
   Auto Start num. interpolation iter.  ....    10
   Max. Number of Micro iterations      ....    24
   Max. Number of Macro iterations      .... Maxiter - #DIIS iter
   Number of Davidson start vectors     ....     2
   Converg. threshold    (grad. norm)   ....   5.000e-05
   Grad. Scal. Fac. for Micro threshold ....   0.100
   Minimum threshold for Micro iter.    ....   1.000e-02
   NR start threshold (gradient norm)   ....   1.000e-04
   Initial trust radius                 ....   0.400
   Minimum AH scaling param. (alpha)    ....   1.000
   Maximum AH scaling param. (alpha)    .... 1000.000
   Quad. conv. algorithm                .... NR
   White noise on init. David. guess    .... on
   Maximum white noise                  ....   0.010
   Pseudo random numbers                .... off
   Inactive MOs                         .... canonical
   Orbital update algorithm             .... Taylor
   Preconditioner                       .... Diag
   Full preconditioner red. dimension   ....   250
 SOSCF                 CNVSOSCF           .... on
   Start iteration     SOSCFMaxIt         ....   150
   Startup grad/error  SOSCFStart         ....  0.003300
   Hessian update      SOSCFHessUp        .... L-BFGS
   Autom. constraints  SOSCFAutoConstrain .... off
 Level Shifting         CNVShift        .... on
   Level shift para.    LevelShift      ....    0.2500
   Turn off err/grad.   ShiftErr        ....    0.0010
 Zerner damping         CNVZerner       .... off
 Static damping         CNVDamp         .... on
   Fraction old density DampFac         ....    0.7000
   Max. Damping (<1)    DampMax         ....    0.9800
   Min. Damping (>=0)   DampMin         ....    0.0000
   Turn off err/grad.   DampErr         ....    0.1000

SCF Procedure:
 Maximum # iterations   MaxIter         ....   125
 SCF integral mode      SCFMode         .... Direct
   Integral package                     .... SHARK and LIBINT hybrid scheme
 Reset frequency        DirectResetFreq ....    20
 Integral Threshold     Thresh          ....  1.000e-10 Eh
 Primitive CutOff       TCut            ....  1.000e-11 Eh

Convergence Tolerance:
 Convergence Check Mode ConvCheckMode   .... Total+1el-Energy
 Convergence forced     ConvForced      .... 0
 Energy Change          TolE            ....  1.000e-06 Eh
 1-El. energy change                    ....  1.000e-03 Eh
 Orbital Gradient       TolG            ....  5.000e-05
 Orbital Rotation angle TolX            ....  5.000e-05
 DIIS Error             TolErr          ....  1.000e-06

------------------------------
INITIAL GUESS: MODEL POTENTIAL
------------------------------
Loading Hartree-Fock densities                     ... done
Calculating cut-offs                               ... done
Initializing the effective Hamiltonian             ... done
Setting up the integral package (SHARK)            ... done
Starting the Coulomb interaction                   ... done (   0.0 sec)
Making the grid                                    ... done (   0.0 sec)
Mapping shells                                     ... done
Starting the XC term evaluation                    ... done (   0.0 sec)
  promolecular density results
     # of electrons  =     18.000382657
     EX              =    -20.061729069
     EC              =     -0.641992296
     EX+EC           =    -20.703721365
Transforming the Hamiltonian                       ... done (   0.0 sec)
Diagonalizing the Hamiltonian                      ... done (   0.0 sec)
Back transforming the eigenvectors                 ... done (   0.0 sec)
Now organizing SCF variables                       ... done
                      ------------------
                      INITIAL GUESS DONE (   0.0 sec)
                      ------------------
             **** ENERGY FILE WAS UPDATED (fluorine-elem-aqueous.en.tmp) ****
Finished Guess after   0.1 sec
Maximum memory used throughout the entire GUESS-calculation: 7.7 MB

-------------------------------------------------------------------------------------------
                                      ORCA LEAN-SCF
                              memory conserving SCF solver
-------------------------------------------------------------------------------------------

--------------------
CPCM SOLVATION MODEL
--------------------
CPCM parameters:
  Epsilon                                         ...      78.3550
  Refrac                                          ...       1.3328
  Rsolv                                           ...       1.3000
  Surface type                                    ... GAUSSIAN VDW
  Discretization scheme                           ... Constant charge density
    Threshold for H atoms                         ...       5.0000 (charges/Ang^2)
    Threshold for non-H atoms                     ...       5.0000 (charges/Ang^2)
  Epsilon function type                           ...         CPCM
Solvent:                                          ... WATER
SMD-CDS solvent descriptors:
  Soln                                            ...       1.3328
  Soln25                                          ...       1.3323
  Sola                                            ...       0.0000
  Solb                                            ...       0.0000
  Solg                                            ...       0.0000
  Solc                                            ...       0.0000
  Solh                                            ...       0.0000
Radii:
  Scheme                                          ... Element-dependent radii
  Radius for F  used is    3.2692 Bohr (=   1.7300 Ang.)
Calculating surface                               ...        done! (  0.0s)
Cavity surface points                             ...          302
Cavity Volume                                     ...     215.0607
Cavity Surface-area                               ...     178.3445
Calculating surface distance matrix               ...        done! (  0.0s)
Performing Cholesky decomposition & store         ...        done! (  0.0s)
Overall time for CPCM initialization              ...                 0.0s

----------------------------------------D-I-I-S--------------------------------------------
Iteration    Energy (Eh)           Delta-E    RMSDP     MaxDP     DIISErr   Damp  Time(sec)
-------------------------------------------------------------------------------------------
               ***  Starting incremental Fock matrix formation  ***
    1    -199.2834254990563920     0.00e+00  1.07e-03  1.12e-02  8.12e-02  0.700   0.1
    2    -199.2892853125734405    -5.86e-03  7.41e-04  7.48e-03  4.72e-02  0.700   0.1
                               ***Turning on AO-DIIS***
    3    -199.2924447388559486    -3.16e-03  2.92e-04  2.87e-03  2.56e-02  0.700   0.1
    4    -199.2943551069929526    -1.91e-03  5.79e-04  5.26e-03  1.74e-02  0.000   0.1
                              *** Initializing SOSCF ***
---------------------------------------S-O-S-C-F--------------------------------------
Iteration    Energy (Eh)           Delta-E    RMSDP     MaxDP     MaxGrad    Time(sec)
--------------------------------------------------------------------------------------
    5    -199.2984241771763436    -4.07e-03  2.24e-05  2.31e-04  5.66e-04     0.1
               *** Restarting incremental Fock matrix formation ***
    6    -199.2984246276510305    -4.50e-07  2.06e-05  2.24e-04  1.54e-04     0.1
    7    -199.2984245733414070     5.43e-08  1.15e-05  1.34e-04  1.64e-04     0.1
                 **** Energy Check signals convergence ****

               *****************************************************
               *                     SUCCESS                       *
               *           SCF CONVERGED AFTER   7 CYCLES          *
               *****************************************************


SMD CDS free energy correction energy :                 2.17122     Kcal/mol
Total Energy after SMD CDS correction =              -199.294964705 Eh
             **** ENERGY FILE WAS UPDATED (fluorine-elem-aqueous.en.tmp) ****

----------------
TOTAL SCF ENERGY
----------------

Total Energy       :       -199.29496470479637 Eh           -5423.09169 eV

Components:
Nuclear Repulsion  :         38.96640047095566 Eh            1060.32966 eV
Electronic Energy  :       -238.26449148191270 Eh           -6483.50643 eV
One Electron Energy:       -355.00229360407161 Eh           -9660.10352 eV
Two Electron Energy:        116.73780212215891 Eh            3176.59709 eV
CPCM Dielectric    :         -0.00033375000615 Eh              -0.00908 eV
SMD CDS (Gcds)     :          0.00346005616684 Eh               0.09415 eV

Virial components:
Potential Energy   :       -399.25438231888961 Eh          -10864.26407 eV
Kinetic Energy     :        199.95941761409324 Eh            5441.17238 eV
Virial Ratio       :          1.99667706118959

DFT components:
N(Alpha)           :        8.999995692737 electrons
N(Beta)            :        8.999995692737 electrons
N(Total)           :       17.999991385474 electrons
E(X)               :      -20.185855781069 Eh       
E(C)               :       -0.635923535104 Eh       
E(XC)              :      -20.821779316173 Eh       

CPCM Solvation Model Properties:
Surface-charge          :         -0.00439487774009
Corrected charge        :          0.00000000000000
Outlying charge corr.   :          0.00000254776951 Eh               0.00007 eV
Free-energy (cav+disp)  :          0.00346005616684 Eh               0.09415 eV

---------------
SCF CONVERGENCE
---------------

  Last Energy change         ...   -5.4310e-08  Tolerance :   1.0000e-06
  Last MAX-Density change    ...    1.3354e-04  Tolerance :   1.0000e-05
  Last RMS-Density change    ...    1.1509e-05  Tolerance :   1.0000e-06
  Last DIIS Error            ...    5.6639e-04  Tolerance :   1.0000e-06
  Last Orbital Gradient      ...    1.6353e-04  Tolerance :   5.0000e-05
  Last Orbital Rotation      ...    8.8241e-05  Tolerance :   5.0000e-05


----------------
ORBITAL ENERGIES
----------------

  NO   OCC          E(Eh)            E(eV) 
   0   2.0000     -24.333419      -662.1460 
   1   2.0000     -24.333417      -662.1460 
   2   2.0000      -1.488190       -40.4957 
   3   2.0000      -0.906822       -24.6759 
   4   2.0000      -0.604899       -16.4601 
   5   2.0000      -0.563466       -15.3327 
   6   2.0000      -0.563465       -15.3327 
   7   2.0000      -0.264243        -7.1904 
   8   2.0000      -0.264243        -7.1904 
   9   0.0000       0.117295         3.1918 
  10   0.0000       0.402659        10.9569 
  11   0.0000       0.435547        11.8518 
  12   0.0000       0.441673        12.0185 
  13   0.0000       0.441683        12.0188 
  14   0.0000       0.511788        13.9265 
  15   0.0000       0.575224        15.6526 
  16   0.0000       0.575224        15.6526 
  17   0.0000       0.949060        25.8252 
  18   0.0000       1.596395        43.4401 
  19   0.0000       1.596396        43.4401 
*Only the first 10 virtual orbitals were printed.

                    ********************************
                    * MULLIKEN POPULATION ANALYSIS *
                    ********************************

-----------------------
MULLIKEN ATOMIC CHARGES
-----------------------
   0 F :   -0.000000
   1 F :    0.000000
Sum of atomic charges:    0.0000000

--------------------------------
MULLIKEN REDUCED ORBITAL CHARGES
--------------------------------
  0 F s       :     3.936868  s :     3.936868
      pz      :     1.982741  p :     5.008863
      px      :     1.552668
      py      :     1.473454
      dz2     :     0.004429  d :     0.050013
      dxz     :     0.007393
      dyz     :     0.008755
      dx2y2   :     0.016128
      dxy     :     0.013307
      f0      :     0.000416  f :     0.004256
      f+1     :     0.000387
      f-1     :     0.000446
      f+2     :     0.000005
      f-2     :     0.000689
      f+3     :     0.001186
      f-3     :     0.001127

  1 F s       :     3.936868  s :     3.936868
      pz      :     1.982741  p :     5.008863
      px      :     1.552668
      py      :     1.473454
      dz2     :     0.004429  d :     0.050013
      dxz     :     0.007393
      dyz     :     0.008755
      dx2y2   :     0.016128
      dxy     :     0.013307
      f0      :     0.000416  f :     0.004256
      f+1     :     0.000387
      f-1     :     0.000446
      f+2     :     0.000005
      f-2     :     0.000689
      f+3     :     0.001186
      f-3     :     0.001127



                     *******************************
                     * LOEWDIN POPULATION ANALYSIS *
                     *******************************

----------------------
LOEWDIN ATOMIC CHARGES
----------------------
   0 F :   -0.000000
   1 F :    0.000000

-------------------------------
LOEWDIN REDUCED ORBITAL CHARGES
-------------------------------
  0 F s       :     3.679604  s :     3.679604
      pz      :     1.943620  p :     5.136540
      px      :     1.625739
      py      :     1.567182
      dz2     :     0.016113  d :     0.166257
      dxz     :     0.023305
      dyz     :     0.027598
      dx2y2   :     0.050884
      dxy     :     0.048357
      f0      :     0.002054  f :     0.017600
      f+1     :     0.001326
      f-1     :     0.001508
      f+2     :     0.000024
      f-2     :     0.003399
      f+3     :     0.004521
      f-3     :     0.004767

  1 F s       :     3.679604  s :     3.679604
      pz      :     1.943620  p :     5.136540
      px      :     1.625739
      py      :     1.567182
      dz2     :     0.016113  d :     0.166257
      dxz     :     0.023305
      dyz     :     0.027598
      dx2y2   :     0.050884
      dxy     :     0.048357
      f0      :     0.002054  f :     0.017600
      f+1     :     0.001326
      f-1     :     0.001508
      f+2     :     0.000024
      f-2     :     0.003399
      f+3     :     0.004521
      f-3     :     0.004767



                      *****************************
                      * MAYER POPULATION ANALYSIS *
                      *****************************

  NA   - Mulliken gross atomic population
  ZA   - Total nuclear charge
  QA   - Mulliken gross atomic charge
  VA   - Mayer's total valence
  BVA  - Mayer's bonded valence
  FA   - Mayer's free valence

  ATOM       NA         ZA         QA         VA         BVA        FA
  0 F      9.0000     9.0000    -0.0000     0.8050     0.8050     0.0000
  1 F      9.0000     9.0000     0.0000     0.8050     0.8050     0.0000

  Mayer bond orders larger than 0.100000
B(  0-F ,  1-F ) :   0.8050 

-------
TIMINGS
-------

Total SCF time: 0 days 0 hours 0 min 0 sec 

Total time                  ....       0.622 sec
Sum of individual times     ....       0.536 sec  ( 86.1%)

SCF preparation             ....       0.035 sec  (  5.6%)
Fock matrix formation       ....       0.485 sec  ( 77.9%)
  Startup                   ....       0.001 sec  (  0.2% of F)
  Split-RI-J                ....       0.107 sec  ( 22.1% of F)
  XC integration            ....       0.331 sec  ( 68.4% of F)
    Basis function eval.    ....       0.112 sec  ( 33.7% of XC)
    Density eval.           ....       0.066 sec  ( 20.1% of XC)
    XC-Functional eval.     ....       0.042 sec  ( 12.7% of XC)
    XC-Potential eval.      ....       0.083 sec  ( 25.0% of XC)
  CPCM terms                ....       0.107 sec  ( 22.0% of F)
Diagonalization             ....       0.000 sec  (  0.0%)
Density matrix formation    ....       0.003 sec  (  0.5%)
Total Energy calculation    ....       0.001 sec  (  0.1%)
Population analysis         ....       0.002 sec  (  0.3%)
Orbital Transformation      ....       0.002 sec  (  0.3%)
Orbital Orthonormalization  ....       0.000 sec  (  0.0%)
DIIS solution               ....       0.006 sec  (  1.0%)
SOSCF solution              ....       0.003 sec  (  0.4%)
Finished LeanSCF after   0.6 sec

Maximum memory used throughout the entire LEANSCF-calculation: 5.9 MB

------------------------------------------------------------------------------
                         ORCA PROPERTY INTEGRAL CALCULATIONS
------------------------------------------------------------------------------

GBWName                                   ... fluorine-elem-aqueous.gbw
Number of atoms                           ...      2
Number of basis functions                 ...     62
Max core memory                           ...  28672 MB

Dipole integrals                          ... YES
Quadrupole integrals                      ...  NO
Linear momentum integrals                 ...  NO
Angular momentum integrals                ...  NO
Higher moments length integrals           ...  NO
Higher moments velocity integrals         ...  NO
Kinetic energy integrals                  ...  NO
GIAO right hand sides                     ...  NO
GIAO dipole derivative integrals          ...  NO
SOC integrals                             ...  NO
EPR diamagnetic integrals (GIAO)          ...  NO
EPR gauge integrals                       ...  NO
Field gradient integrals                  ...  NO (   0 nuclei)
Spin-dipole/Fermi contact integrals       ...  NO (   0 nuclei)
Contact density integrals                 ...  NO (   0 nuclei)
Nucleus-orbit integrals                   ...  NO (   0 nuclei)
Geometric perturbations                   ... YES (   2 nuclei)

Choice of electric origin   ... Center of mass
Position of electric origin ... ( -5.1456,  0.1989,  0.0000) 
Choice of magnetic origin   ... GIAO
Position of magnetic origin ... (  0.0000,  0.0000,  0.0000) 

Calculating integrals                     ... Electric Dipole (Length)     done (  0.0 sec)
Calculating integrals                     ... Geometrical perturbation right hand sides

-----------------------
GEOMETRIC PERTURBATIONS (2 nuclei)
-----------------------

MaxCore                            ...  28672 MB
Number of batches                  ...      1

BATCH   0: Atoms    0 -    1 (  6 perturbations)
   => H(core) and overlap derivative integrals     ... done (     0.0 sec)
   => Making and storing internal U-coefficients   ... done (     0.0 sec)
   => RI-J derivative integrals                    ... done (     0.4 sec)
   => RI-J response operators                      ... done (     0.0 sec)
   => XC derivative integrals                      ... done (     0.8 sec)
   => XC response operators                        ... done (     0.1 sec)
   => CPCM derivative integrals                    ... done (     0.5 sec)
   => CPCM response operators                      ... done (     0.6 sec)
   => Completing and storing right hand sides      ... done (     0.0 sec)
   => Total time for right hand sides =   2.0 sec

  geometrical perturbations done (  2.0 sec)

Property integrals calculated in   2.0 sec

Maximum memory used throughout the entire PROPINT-calculation: 12.4 MB


-------------------------------------------------------------------------------
                          DFT DISPERSION CORRECTION                            
                                                                               
                                DFTD4 V3.4.0                                   
-------------------------------------------------------------------------------
The PBE functional is recognized
Active option DFTDOPT                   ...         5   

-------------------------   ----------------
Dispersion correction           -0.000191060
-------------------------   ----------------


-------------------------   --------------------
FINAL SINGLE POINT ENERGY      -199.295155764868
-------------------------   --------------------

------------------------------------------------------------------------------
                            ORCA SCF RESPONSE CALCULATION
------------------------------------------------------------------------------

GBWName                                 ... fluorine-elem-aqueous.gbw
Number of atoms                         ...      2
Number of basis functions               ...     62
Max core memory                         ...  28672 MB

Electric field perturbation             ...  NO
Quadrupolar field perturbation          ...  NO
Magnetic field perturbation (no GIAO)   ...  NO
Magnetic field perturbation (with GIAO) ...  NO
Linear momentum (velocity) perturbation ...  NO
Spin-orbit coupling perturbation        ...  NO
Choice of electric origin               ... Center of mass
Position of electric origin             ...    -5.145630     0.198931     0.000009
Choice of magnetic origin               ... GIAO
Position of magnetic origin             ...     0.000000     0.000000     0.000000
Nuclear geometric perturbations         ... YES (   6 perturbations)
Nucleus-orbit perturbations             ...  NO (   0 perturbations)
Spin-dipole/Fermi contact perturbations ...  NO (   0 perturbations)

Total number of real perturbations      ...      6
Total number of imaginary perturbations ...      0
Total number of triplet perturbations   ...      0
Total number of SOC perturbations       ...      0


                                **********************
                                * REAL PERTURBATIONS *
                                **********************



-------------------
SHARK CP-SCF DRIVER
-------------------

Dimension of the orbital basis          ...     62
Dimension of the CPSCF-problem          ...    477
Number of operators                     ...      1
Max. number of iterations               ...    128
Convergence Tolerance                   ... 1.0e-03
Number of perturbations                 ...      6
Perturbation type                       ... REAL

----------------------------
POPLE LINEAR EQUATION SOLVER
----------------------------

  ITERATION   0:   ||err||_max =   4.4790e-02 (   0.1 sec   0/  6 done)
  ITERATION   1:   ||err||_max =   9.3540e-03 (   0.1 sec   0/  6 done)
  ITERATION   2:   ||err||_max =   1.0718e-03 (   0.1 sec   2/  6 done)
  ITERATION   3:   ||err||_max =   6.0158e-05 (   0.1 sec   6/  6 done)

CP-SCF equations solved in   0.4 sec
Response densities calculated in   0.0 sec

Maximum memory used throughout the entire SCFRESP-calculation: 5.4 MB

------------------------------------------------------------------------------
                              ORCA PROPERTY CALCULATIONS
------------------------------------------------------------------------------

GBWName                                 ... fluorine-elem-aqueous.gbw
Number of atoms                         ...      2
Number of basis functions               ...     62
Max core memory                         ...  28672 MB

Electric properties:
Dipole moment                           ... YES
Quadrupole moment                       ...  NO
Static polarizability (Dipole/Dipole)   ...  NO
Static polarizability (Dipole/Quad.)    ...  NO
Static polarizability (Quad./Quad.)     ...  NO
Static polarizability (Velocity)        ...  NO
Static hyperpolarizability              ...  NO

Atomic electric properties:
Dipole moment                           ...  NO
Quadrupole moment                       ...  NO
Static polarizability                   ...  NO

Choice of electric origin               ... Center of mass
Position of electric origin             ...    -5.145630     0.198931     0.000009

General magnetic properties:
Magnetizability                         ...  NO

EPR properties:
g-Tensor (aka g-matrix)                 ...  NO
Zero-Field splitting spin-orbit         ...  NO
Zero-field splitting spin-spin          ...  NO
Hyperfine couplings                     ...  NO (   0 nuclei)
Quadrupole couplings                    ...  NO (   0 nuclei)
Contact density                         ...  NO (   0 nuclei)

NMR properties:
Chemical shifts                         ...  NO (   0 nuclei)
Spin-rotation constants                 ...  NO (   0 nuclei)
Spin-spin couplings                     ...  NO (   0 nuclei,    0 pairs)

Choice of magnetic origin               ... GIAO
Position of magnetic origin             ...     0.000000     0.000000     0.000000

Properties with geometric perturbations:
SCF Hessian                             ... YES
IR spectrum                             ... YES
VCD spectrum                            ...  NO
X-ray spectroscopy properties:
SCF XES/XAS/RIXS spectra                ...  NO

SCF SOC stabilization energy            ...  NO
Diagonal Born-Oppenheimer correction    ...  NO

-------------
DIPOLE MOMENT
-------------

Method             : SCF
Type of density    : Electron Density
Multiplicity       :   1
Irrep              :   0
Energy             :  -199.2949647047963708 Eh
Basis              : AO
                                X                 Y                 Z
Electronic contribution:      0.000000001      -0.000000001       0.000000000
Nuclear contribution   :     -0.000000000       0.000000000      -0.000000000
                        -----------------------------------------
Total Dipole Moment    :      0.000000001      -0.000000001       0.000000000
                        -----------------------------------------
Magnitude (a.u.)       :      0.000000002
Magnitude (Debye)      :      0.000000004



--------------------
Rotational spectrum 
--------------------
 
Rotational constants in cm-1:             0.000000             1.466651             1.466651 
Rotational constants in MHz :             0.000000         43969.104258         43969.104258 

Dipole components along the rotational axes: 
x,y,z [a.u.] :    -0.000000    -0.000000     0.000000 
x,y,z [Debye]:    -0.000000    -0.000000     0.000000 

 

Dipole moment calculation done in   0.0 sec 

-----------
SCF HESSIAN
-----------

Occupied/Occupied contributions to the Hessian:
   => Occupied/Occupied contributions              ... done (  0.0 sec)
Perturbed density contributions to the Hessian:
   => Perturbed density contributions              ... done (  0.0 sec)
Explicit contributions to the Hessian:
   => Nuclear repulsion Hessian                    ... done (  0.0 sec)
   => HCore and overlap Hessian                    ... done (  0.0 sec)
   => RI-J Hessian                                 ... done (  0.5 sec)
   => XC-Hessian                                   ... done (  0.7 sec)
   => CPCM-Hessian                                 ... done (  0.3 sec)
   => Van der Waals-Hessian                        ... done (  0.3 sec)
   => SMD-Hessian                                  ... done (  0.0 sec)
   => Explicit contributions done
Dipole derivatives                                 ... done (  0.0 sec)
Mass weighting the Hessian           ... done
Calculating normal modes             ... done
Scaling frequencies                  ... done

-----------------------
VIBRATIONAL FREQUENCIES
-----------------------

Scaling factor for frequencies =  1.000000000  (already applied!)

     0:       0.00 cm**-1
     1:       0.00 cm**-1
     2:       0.00 cm**-1
     3:       0.00 cm**-1
     4:       0.00 cm**-1
     5:    2412.22 cm**-1


------------
NORMAL MODES
------------

These modes are the Cartesian displacements weighted by the diagonal matrix
M(i,i)=1/sqrt(m[i]) where m[i] is the mass of the displaced atom
Thus, these vectors are normalized but *not* orthogonal

                  0          1          2          3          4          5    
      0       0.000000   0.000000   0.000000   0.000000   0.000000  -0.478451
      1       0.000000   0.000000   0.000000   0.000000   0.000000   0.520658
      2       0.000000   0.000000   0.000000   0.000000   0.000000  -0.000006
      3       0.000000   0.000000   0.000000   0.000000   0.000000   0.478451
      4       0.000000   0.000000   0.000000   0.000000   0.000000  -0.520658
      5       0.000000   0.000000   0.000000   0.000000   0.000000   0.000006


-----------
IR SPECTRUM
-----------

 Mode   freq       eps      Int      T**2         TX        TY        TZ
       cm**-1   L/(mol*cm) km/mol    a.u.
----------------------------------------------------------------------------
  5:   2412.22   0.000000    0.00  0.000000  ( 0.000000 -0.000000 -0.000000)

* The epsilon (eps) is given for a Dirac delta lineshape.
** The dipole moment derivative (T) already includes vibrational overlap.

The first frequency considered to be a vibration is 5
The total number of vibrations considered is 1


--------------------------
THERMOCHEMISTRY AT 298.15K
--------------------------

Temperature         ...   298.15 K
Pressure            ...     1.00 atm
Total Mass          ...    38.00 AMU
Quasi RRHO          ...     True
Cut-Off Frequency   ...     1.00 cm^-1
The molecule is recognized as being linear

Throughout the following assumptions are being made:
  (1) The electronic state is orbitally nondegenerate
  (2) There are no thermally accessible electronically excited states
  (3) Hindered rotations indicated by low frequency modes are not
      treated as such but are treated as vibrations and this may
      cause some error
  (4) All equations used are the standard statistical mechanics
      equations for an ideal gas
  (5) All vibrations are strictly harmonic

freq.    2412.22  E(vib)   ...       0.00 

------------
INNER ENERGY
------------

The inner energy is: U= E(el) + E(ZPE) + E(vib) + E(rot) + E(trans)
    E(el)   - is the total energy from the electronic structure calculation
              = E(kin-el) + E(nuc-el) + E(el-el) + E(nuc-nuc)
    E(ZPE)  - the the zero temperature vibrational energy from the frequency calculation
    E(vib)  - the the finite temperature correction to E(ZPE) due to population
              of excited vibrational states
    E(rot)  - is the rotational thermal energy
    E(trans)- is the translational thermal energy

Summary of contributions to the inner energy U:
Electronic energy                ...   -199.29515576 Eh
Zero point energy                ...      0.00549544 Eh       3.45 kcal/mol
Thermal vibrational correction   ...      0.00000010 Eh       0.00 kcal/mol
Thermal rotational correction    ...      0.00094418 Eh       0.59 kcal/mol
Thermal translational correction ...      0.00141627 Eh       0.89 kcal/mol
-----------------------------------------------------------------------
Total thermal energy                   -199.28729978 Eh


Summary of corrections to the electronic energy:
(perhaps to be used in another calculation)
Total thermal correction                  0.00236055 Eh       1.48 kcal/mol
Non-thermal (ZPE) correction              0.00549544 Eh       3.45 kcal/mol
-----------------------------------------------------------------------
Total correction                          0.00785599 Eh       4.93 kcal/mol


--------
ENTHALPY
--------

The enthalpy is H = U + kB*T
                kB is Boltzmann's constant
Total thermal energy              ...   -199.28729978 Eh 
Thermal Enthalpy correction       ...      0.00094421 Eh       0.59 kcal/mol
-----------------------------------------------------------------------
Total Enthalpy                    ...   -199.28635557 Eh


Note: Rotational entropy computed according to Herzberg 
Infrared and Raman Spectra, Chapter V,1, Van Nostrand Reinhold, 1945 
Point Group:  D(inf)h, Symmetry Number:   2  
Rotational constants in cm-1:     0.000000     1.466653     1.466653 

Vibrational entropy computed according to the QRRHO of S. Grimme
Chem.Eur.J. 2012 18 9955 using a reference frequency of 100.0 cm-1


-------
ENTROPY
-------

The entropy contributions are T*S = T*(S(el)+S(vib)+S(rot)+S(trans))
     S(el)   - electronic entropy
     S(vib)  - vibrational entropy
     S(rot)  - rotational entropy
     S(trans)- translational entropy
The entropies will be listed as multiplied by the temperature to get
units of energy

Electronic entropy                ...      0.00000000 Eh      0.00 kcal/mol
Vibrational entropy               ...      0.00000010 Eh      0.00 kcal/mol
Rotational entropy                ...      0.00496420 Eh      3.12 kcal/mol
Translational entropy             ...      0.01750073 Eh     10.98 kcal/mol
-----------------------------------------------------------------------
Final entropy term                ...      0.02246504 Eh     14.10 kcal/mol


-------------------
GIBBS FREE ENERGY
-------------------

The Gibbs free energy is G = H - T*S

Total enthalpy                    ...   -199.28635557 Eh 
Total entropy correction          ...     -0.02246504 Eh    -14.10 kcal/mol
-----------------------------------------------------------------------
Final Gibbs free energy         ...   -199.30882061 Eh

For completeness - the Gibbs free energy minus the electronic energy
G-E(el)                           ...     -0.01366484 Eh     -8.57 kcal/mol


Maximum memory used throughout the entire PROP-calculation: 26.3 MB

--------------------------------
SUGGESTED CITATIONS FOR THIS RUN
--------------------------------

Below you find a list of papers that are relevant to this ORCA run
We neither can nor want to force you to cite these papers, but we appreciate if you do
You receive ORCA, which is the product of decades of hard work by many enthusiastic individuals, for free
The only thing we kindly ask in return is that you cite our papers,
We deeply appreciate it, if you show your appreciation for ORCA by not just citing the generic ORCA reference.

Please note that relegating all ORCA citations to the supporting information does *not* help us.
SI sections are not indexed - citations you put there will not count into any citation statistics
But we need these citations in order to attract the funding resources that allow us to do what we are doing

Therefore, if you are a happy ORCA user, please consider citing a few of the papers listed below in the main body of your paper

In addition to the list printed below, the program has created the file fluorine-elem-aqueous.bibtex that contains the list in bibtex format
You can import this file easily into all common literature databanks and citation aid programs


List of essential papers. We consider these as the minimum necessary citations

  1. Neese, F.
     Software update: the ORCA program system, version 6.0
     WIRES Comput. Molec. Sci. 2025 15(1), e70019
     doi.org/10.1002/wcms.7019

List of papers to cite with high priority. The work reported in these papers was absolutely
necessary for this run to complete.
Our perspective: the developers of density functionals and basis sets usually get cited in chemistry papers
Good! But without the algorithms to do something with them, the functionals or basis sets would not do anything.
Hence, in our opinion, the algorithm design and method developments papers are equally worthy of getting cited

  1. Neese, F.
     An improvement of the resolution of the identity approximation for the formation of the Coulomb matrix
     J. Comp. Chem. 2003 24(14), 1740-1747
     doi.org/10.1002/jcc.10318
  2. Bykov, D.; Petrenko, T.; Izsak, R.; Kossmann, S.; Becker, U.; Valeev, E.; Neese, F.
     Efficient implementation of the analytic second derivatives of Hartree-Fock and hybrid DFT energies: a detailed analysis of different approximations
     Molec. Phys. 2015 113 , 1961-1977
     doi.org/10.1080/00268976.2015.1025114
  3. Caldeweyher, E.; Bannwarth, C.; Grimme, S.
     Extension of the D3 dispersion coefficient model
     J. Chem. Phys. 2017 147 , 034112
     doi.org/10.1063/1.4993215
  4. Caldeweyher, E.; Ehlert, S.; Hansen, A.; Neugebauer, H.; Spicher, S.; Bannwarth, C.; Grimme, S.
     A generally applicable atomic-charge dependent London dispersion correction
     J. Chem. Phys. 2019 150 , 154122
     doi.org/10.1063/1.5090222
  5. Garcia-Rates, M.; Neese, F.
     Efficient implementation of the analytical second derivatives of hartree-fock and hybrid DFT energies within the framework of the conductor-like polarizable continuum model
     J. Comput. Chem. 2019 40 , 1816-1828
     doi.org/10.1002/jcc.25833
  6. Caldeweyher, E.; Mewes, J.; Ehlert, S.; Grimme, S.
     Extension and evaluation of the D4 London-dispersion model for periodic systems
     Phys. Chem. Chem. Phys. 2020 22(16), 8499-8512
     doi.org/10.1039/D0CP00502A
  7. Garcia-Rates, M.; Neese, F.
     Effect of the Solute Cavity on the Solvation Energy and its Derivatives within the Framework of the Gaussian Charge Scheme
     J. Comput. Chem. 2020 41 , 922-939
     doi.org/10.1002/jcc.26139
  8. Neese, F.
     The SHARK Integral Generation and Digestion System
     J. Comp. Chem. 2022 44(3), 381
     doi.org/10.1002/jcc.26942
  9. Wittmann, L.; Gordiy, I.; Friede, M.; Helmich-Paris, B.; Grimme, S.; Hansen, A.; Bursch, M.
     Extension of the D3 and D4 London Dispersion Corrections to the full Actinides Series
     Phys. Chem. Chem. Phys. 2024 26(32), 21379-21394
     doi.org/10.1039/D4CP01514B

List of suggested additional citations. These are papers that are important in the 'surrounding' of 
of this run, or papers that preceded the highly important papers. If you like your results we are grateful for a citation.

  1. Neese, F.
     The ORCA program system
     WIRES Comput. Molec. Sci. 2012 2(1), 73-78
     doi.org/10.1002/wcms.81
  2. Neese, F.
     Software update: the ORCA program system, version 4.0
     WIRES Comput. Molec. Sci. 2018 8(1), 1-6
     doi.org/10.1002/wcms.1327
  3. Neese, F.; Wennmohs, F.; Becker, U.; Riplinger, C.
     The ORCA quantum chemistry program package
     J. Chem. Phys. 2020 152(22), 224108
     doi.org/10.1063/5.0004608
  4. Neese, F.
     Software update: The ORCA program system—Version 5.0
     WIRES Comput. Molec. Sci. 2022 12(1), e1606
     doi.org/10.1002/wcms.1606

List of optional additional citations

  1. Neese, F.
     Approximate second-order SCF convergence for spin unrestricted wavefunctions
     Chem. Phys. Lett. 2000 325(1-3), 93-98
     doi.org/10.1016/s0009-2614(00)00662-x

Timings for individual modules:

Sum of individual times          ...        5.403 sec (=   0.090 min)
Startup calculation              ...        0.114 sec (=   0.002 min)   2.1 %
SCF iterations                   ...        0.724 sec (=   0.012 min)  13.4 %
Property integrals               ...        2.098 sec (=   0.035 min)  38.8 %
SCF Response                     ...        0.497 sec (=   0.008 min)   9.2 %
Property calculations            ...        1.971 sec (=   0.033 min)  36.5 %
                             ****ORCA TERMINATED NORMALLY****
TOTAL RUN TIME: 0 days 0 hours 0 minutes 5 seconds 533 msec
